
     Program PWSCF v.7.0 starts on  1Sep2025 at  0:13:30 

     This program is part of the open-source Quantum ESPRESSO suite
     for quantum simulation of materials; please cite
         "P. Giannozzi et al., J. Phys.:Condens. Matter 21 395502 (2009);
         "P. Giannozzi et al., J. Phys.:Condens. Matter 29 465901 (2017);
         "P. Giannozzi et al., J. Chem. Phys. 152 154105 (2020);
          URL http://www.quantum-espresso.org", 
     in publications or presentations arising from this work. More details at
     http://www.quantum-espresso.org/quote

     Serial version
     4250 MiB available memory on the printing compute node when the environment starts

     Waiting for input...
     Reading input from standard input

     Current dimensions of program PWSCF are:
     Max number of different atomic species (ntypx) = 10
     Max number of k-points (npk) =  40000
     Max angular momentum in pseudopotentials (lmaxx) =  4
     file Fe.UPF: wavefunction(s)  3D renormalized

     G-vector sticks info
     --------------------
     sticks:   dense  smooth     PW     G-vecs:    dense   smooth      PW
     Sum        2107    1069    313                64767    22995    3719

     Using Slab Decomposition



     bravais-lattice index     =            2
     lattice parameter (alat)  =      11.3400  a.u.
     unit-cell volume          =     364.5685 (a.u.)^3
     number of atoms/cell      =            4
     number of atomic types    =            4
     number of electrons       =        60.00
     number of Kohn-Sham states=           36
     kinetic-energy cutoff     =      60.0000  Ry
     charge density cutoff     =     480.0000  Ry
     scf convergence threshold =      1.0E-08
     mixing beta               =       0.7000
     number of iterations used =            8  plain     mixing
     energy convergence thresh.=      1.0E-04
     force convergence thresh. =      1.0E-03
     press convergence thresh. =      5.0E-01
     Exchange-correlation=  SLA  PW   PBX  PBC
                           (   1   4   3   4   0   0   0)
     nstep                     =           50


     celldm(1)=  11.340000  celldm(2)=   0.000000  celldm(3)=   0.000000
     celldm(4)=   0.000000  celldm(5)=   0.000000  celldm(6)=   0.000000

     crystal axes: (cart. coord. in units of alat)
               a(1) = (  -0.500000   0.000000   0.500000 )  
               a(2) = (   0.000000   0.500000   0.500000 )  
               a(3) = (  -0.500000   0.500000   0.000000 )  

     reciprocal axes: (cart. coord. in units 2 pi/alat)
               b(1) = ( -1.000000 -1.000000  1.000000 )  
               b(2) = (  1.000000  1.000000  1.000000 )  
               b(3) = ( -1.000000  1.000000 -1.000000 )  


     PseudoPot. # 1 for Co read from file:
     /home/washingmachine/Galaxy/CoFeMnTi-1/Pseudo/Co.UPF
     MD5 check sum: 5f91765df6ddd3222702df6e7b74a16d
     Pseudo is Ultrasoft + core correction, Zval = 17.0
     Generated by new atomic code, or converted to UPF format
     Using radial grid of  863 points,  6 beta functions with: 
                l(1) =   0
                l(2) =   0
                l(3) =   1
                l(4) =   1
                l(5) =   2
                l(6) =   2
     Q(r) pseudized with  8 coefficients,  rinner =    1.200   1.200   1.200
                                                       1.200   1.200

     PseudoPot. # 2 for Fe read from file:
     /home/washingmachine/Galaxy/CoFeMnTi-1/Pseudo/Fe.UPF
     MD5 check sum: e86618425769142926afa95317d90200
     Pseudo is Projector augmented-wave + core cor, Zval = 16.0
     Generated using "atomic" code by A. Dal Corso  v.5.0.99 svn rev. 10869
     Shape of augmentation charge: PSQ
     Using radial grid of 1191 points,  6 beta functions with: 
                l(1) =   0
                l(2) =   0
                l(3) =   1
                l(4) =   1
                l(5) =   2
                l(6) =   2
     Q(r) pseudized with 0 coefficients 


     PseudoPot. # 3 for Mn read from file:
     /home/washingmachine/Galaxy/CoFeMnTi-1/Pseudo/Mn.UPF
     MD5 check sum: 82ef2b46521d7a7d9e736dc3972e4928
     Pseudo is Ultrasoft + core correction, Zval = 15.0
     Generated by new atomic code, or converted to UPF format
     Using radial grid of  859 points,  6 beta functions with: 
                l(1) =   0
                l(2) =   0
                l(3) =   1
                l(4) =   1
                l(5) =   2
                l(6) =   2
     Q(r) pseudized with  8 coefficients,  rinner =    0.950   0.950   0.950
                                                       0.950   0.950

     PseudoPot. # 4 for Ti read from file:
     /home/washingmachine/Galaxy/CoFeMnTi-1/Pseudo/Ti.UPF
     MD5 check sum: 88a00a6731bd790ddea75d31a80cb452
     Pseudo is Ultrasoft + core correction, Zval = 12.0
     Generated by new atomic code, or converted to UPF format
     Using radial grid of  851 points,  6 beta functions with: 
                l(1) =   0
                l(2) =   0
                l(3) =   1
                l(4) =   1
                l(5) =   2
                l(6) =   2
     Q(r) pseudized with  6 coefficients,  rinner =    1.000   1.000   1.000
                                                       1.000   1.000

     atomic species   valence    mass     pseudopotential
        Co            17.00    58.93300     Co( 1.00)
        Fe            16.00    55.84500     Fe( 1.00)
        Mn            15.00    54.93800     Mn( 1.00)
        Ti            12.00    47.86700     Ti( 1.00)

     Starting magnetic structure 
     atomic species   magnetization
        Co           1.000
        Fe           1.000
        Mn           1.000
        Ti           0.100

     24 Sym. Ops. (no inversion) found



   Cartesian axes

     site n.     atom                  positions (alat units)
         1           Fe  tau(   1) = (   0.0000000   0.0000000   0.0000000  )
         2           Co  tau(   2) = (  -0.5000000   0.5000000   0.5000000  )
         3           Mn  tau(   3) = (  -0.2500000   0.2500000   0.2500000  )
         4           Ti  tau(   4) = (  -0.7500000   0.7500000   0.7500000  )

     number of k points=    29  Marzari-Vanderbilt smearing, width (Ry)=  0.0200
                       cart. coord. in units 2pi/alat
        k(    1) = (   0.0000000   0.0000000   0.0000000), wk =   0.0019531
        k(    2) = (  -0.1250000   0.1250000  -0.1250000), wk =   0.0156250
        k(    3) = (  -0.2500000   0.2500000  -0.2500000), wk =   0.0156250
        k(    4) = (  -0.3750000   0.3750000  -0.3750000), wk =   0.0156250
        k(    5) = (   0.5000000  -0.5000000   0.5000000), wk =   0.0078125
        k(    6) = (   0.0000000   0.2500000   0.0000000), wk =   0.0117188
        k(    7) = (  -0.1250000   0.3750000  -0.1250000), wk =   0.0468750
        k(    8) = (  -0.2500000   0.5000000  -0.2500000), wk =   0.0468750
        k(    9) = (   0.6250000  -0.3750000   0.6250000), wk =   0.0468750
        k(   10) = (   0.5000000  -0.2500000   0.5000000), wk =   0.0468750
        k(   11) = (   0.3750000  -0.1250000   0.3750000), wk =   0.0468750
        k(   12) = (   0.2500000   0.0000000   0.2500000), wk =   0.0234375
        k(   13) = (   0.0000000   0.5000000   0.0000000), wk =   0.0117188
        k(   14) = (  -0.1250000   0.6250000  -0.1250000), wk =   0.0468750
        k(   15) = (   0.7500000  -0.2500000   0.7500000), wk =   0.0468750
        k(   16) = (   0.6250000  -0.1250000   0.6250000), wk =   0.0468750
        k(   17) = (   0.5000000   0.0000000   0.5000000), wk =   0.0234375
        k(   18) = (   0.0000000   0.7500000   0.0000000), wk =   0.0117188
        k(   19) = (   0.8750000  -0.1250000   0.8750000), wk =   0.0468750
        k(   20) = (   0.7500000   0.0000000   0.7500000), wk =   0.0234375
        k(   21) = (   0.0000000  -1.0000000   0.0000000), wk =   0.0058594
        k(   22) = (  -0.2500000   0.5000000   0.0000000), wk =   0.0468750
        k(   23) = (   0.6250000  -0.3750000   0.8750000), wk =   0.0937500
        k(   24) = (   0.5000000  -0.2500000   0.7500000), wk =   0.0468750
        k(   25) = (   0.7500000  -0.2500000   1.0000000), wk =   0.0468750
        k(   26) = (   0.6250000  -0.1250000   0.8750000), wk =   0.0937500
        k(   27) = (   0.5000000   0.0000000   0.7500000), wk =   0.0468750
        k(   28) = (  -0.2500000  -1.0000000   0.0000000), wk =   0.0234375
        k(   29) = (  -0.5000000  -1.0000000   0.0000000), wk =   0.0117188

     Dense  grid:    64767 G-vectors     FFT dimensions: (  60,  60,  60)

     Smooth grid:    22995 G-vectors     FFT dimensions: (  40,  40,  40)

     Estimated max dynamical RAM per process >     385.43 MB

     Check: negative core charge=   -0.000043
     Generating pointlists ...
     new r_m :   0.1786 (alat units)  2.0255 (a.u.) for type    1
     new r_m :   0.1786 (alat units)  2.0255 (a.u.) for type    2
     new r_m :   0.1786 (alat units)  2.0255 (a.u.) for type    3
     new r_m :   0.1786 (alat units)  2.0255 (a.u.) for type    4

     Initial potential from superposition of free atoms

     starting charge      57.4994, renormalised to      60.0000

     negative rho (up, down):  8.153E-04 7.297E-04
     Starting wfcs are   49 randomized atomic wfcs

     total cpu time spent up to now is       12.0 secs

     Self-consistent Calculation

     iteration #  1     ecut=    60.00 Ry     beta= 0.70
     Davidson diagonalization with overlap
     ethr =  1.00E-02,  avg # of iterations =  4.0

     negative rho (up, down):  0.000E+00 3.340E-04

     total cpu time spent up to now is       24.3 secs

     total energy              =    -938.07353994 Ry
     estimated scf accuracy    <      41.70357825 Ry

     total magnetization       =    12.00 Bohr mag/cell
     absolute magnetization    =    13.63 Bohr mag/cell

     iteration #  2     ecut=    60.00 Ry     beta= 0.70
     Davidson diagonalization with overlap
     ethr =  1.00E-02,  avg # of iterations =  6.1

     negative rho (up, down):  0.000E+00 9.309E-06

     total cpu time spent up to now is       40.9 secs

     total energy              =    -939.93082075 Ry
     estimated scf accuracy    <     149.56283336 Ry

     total magnetization       =     1.21 Bohr mag/cell
     absolute magnetization    =     1.40 Bohr mag/cell

     iteration #  3     ecut=    60.00 Ry     beta= 0.70
     Davidson diagonalization with overlap
     ethr =  1.00E-02,  avg # of iterations =  3.5

     negative rho (up, down):  3.320E-05 1.174E-05

     total cpu time spent up to now is       54.2 secs

     total energy              =    -953.29800806 Ry
     estimated scf accuracy    <      22.48648296 Ry

     total magnetization       =     3.49 Bohr mag/cell
     absolute magnetization    =     3.83 Bohr mag/cell

     iteration #  4     ecut=    60.00 Ry     beta= 0.70
     Davidson diagonalization with overlap
     ethr =  1.00E-02,  avg # of iterations =  3.7

     negative rho (up, down):  1.381E-03 1.363E-03

     total cpu time spent up to now is       66.3 secs

     total energy              =    -955.97257617 Ry
     estimated scf accuracy    <      31.96015961 Ry

     total magnetization       =     7.88 Bohr mag/cell
     absolute magnetization    =     8.14 Bohr mag/cell

     iteration #  5     ecut=    60.00 Ry     beta= 0.70
     Davidson diagonalization with overlap
     ethr =  1.00E-02,  avg # of iterations =  4.9

     negative rho (up, down):  3.170E-04 2.699E-04

     total cpu time spent up to now is       79.7 secs

     total energy              =    -954.00742245 Ry
     estimated scf accuracy    <      45.43667599 Ry

     total magnetization       =     4.58 Bohr mag/cell
     absolute magnetization    =     4.88 Bohr mag/cell

     iteration #  6     ecut=    60.00 Ry     beta= 0.70
     Davidson diagonalization with overlap
     ethr =  1.00E-02,  avg # of iterations =  5.0

     negative rho (up, down):  1.019E-04 1.281E-04

     total cpu time spent up to now is       92.1 secs

     total energy              =    -957.55719691 Ry
     estimated scf accuracy    <      35.12762959 Ry

     total magnetization       =     0.26 Bohr mag/cell
     absolute magnetization    =     0.62 Bohr mag/cell

     iteration #  7     ecut=    60.00 Ry     beta= 0.70
     Davidson diagonalization with overlap
     ethr =  1.00E-02,  avg # of iterations =  3.2

     negative rho (up, down):  8.984E-05 1.427E-04

     total cpu time spent up to now is      102.3 secs

     total energy              =    -957.55962114 Ry
     estimated scf accuracy    <       9.45408987 Ry

     total magnetization       =     1.96 Bohr mag/cell
     absolute magnetization    =     2.42 Bohr mag/cell

     iteration #  8     ecut=    60.00 Ry     beta= 0.70
     Davidson diagonalization with overlap
     ethr =  1.00E-02,  avg # of iterations =  3.4

     negative rho (up, down):  1.217E-04 1.465E-04

     total cpu time spent up to now is      113.0 secs

     total energy              =    -958.19108367 Ry
     estimated scf accuracy    <       2.72591985 Ry

     total magnetization       =     2.85 Bohr mag/cell
     absolute magnetization    =     3.24 Bohr mag/cell

     iteration #  9     ecut=    60.00 Ry     beta= 0.70
     Davidson diagonalization with overlap
     ethr =  4.54E-03,  avg # of iterations =  1.1

     negative rho (up, down):  1.230E-04 1.338E-04

     total cpu time spent up to now is      122.1 secs

     total energy              =    -958.20186740 Ry
     estimated scf accuracy    <       1.14582978 Ry

     total magnetization       =     3.64 Bohr mag/cell
     absolute magnetization    =     4.16 Bohr mag/cell

     iteration # 10     ecut=    60.00 Ry     beta= 0.70
     Davidson diagonalization with overlap
     ethr =  1.91E-03,  avg # of iterations =  1.1

     negative rho (up, down):  1.656E-04 1.619E-04

     total cpu time spent up to now is      131.2 secs

     total energy              =    -958.17740852 Ry
     estimated scf accuracy    <       0.97315556 Ry

     total magnetization       =     3.71 Bohr mag/cell
     absolute magnetization    =     4.27 Bohr mag/cell

     iteration # 11     ecut=    60.00 Ry     beta= 0.70
     Davidson diagonalization with overlap
     ethr =  1.62E-03,  avg # of iterations =  1.0

     negative rho (up, down):  4.252E-04 1.772E-04

     total cpu time spent up to now is      140.4 secs

     total energy              =    -958.19745152 Ry
     estimated scf accuracy    <       0.35653998 Ry

     total magnetization       =     4.44 Bohr mag/cell
     absolute magnetization    =     5.42 Bohr mag/cell

     iteration # 12     ecut=    60.00 Ry     beta= 0.70
     Davidson diagonalization with overlap
     ethr =  5.94E-04,  avg # of iterations =  2.1

     negative rho (up, down):  7.795E-04 1.931E-04

     total cpu time spent up to now is      150.0 secs

     total energy              =    -958.21811150 Ry
     estimated scf accuracy    <       0.23664601 Ry

     total magnetization       =     4.46 Bohr mag/cell
     absolute magnetization    =     5.90 Bohr mag/cell

     iteration # 13     ecut=    60.00 Ry     beta= 0.70
     Davidson diagonalization with overlap
     ethr =  3.94E-04,  avg # of iterations =  2.9

     negative rho (up, down):  8.558E-04 1.735E-04

     total cpu time spent up to now is      159.9 secs

     total energy              =    -958.24528556 Ry
     estimated scf accuracy    <       0.01632406 Ry

     total magnetization       =     5.03 Bohr mag/cell
     absolute magnetization    =     7.14 Bohr mag/cell

     iteration # 14     ecut=    60.00 Ry     beta= 0.70
     Davidson diagonalization with overlap
     ethr =  2.72E-05,  avg # of iterations =  5.2

     negative rho (up, down):  1.031E-03 1.627E-04

     total cpu time spent up to now is      171.7 secs

     total energy              =    -958.25363450 Ry
     estimated scf accuracy    <       0.01594166 Ry

     total magnetization       =     4.78 Bohr mag/cell
     absolute magnetization    =     6.85 Bohr mag/cell

     iteration # 15     ecut=    60.00 Ry     beta= 0.70
     Davidson diagonalization with overlap
     ethr =  2.66E-05,  avg # of iterations =  3.2

     negative rho (up, down):  1.028E-03 1.608E-04

     total cpu time spent up to now is      182.0 secs

     total energy              =    -958.24723367 Ry
     estimated scf accuracy    <       0.07478088 Ry

     total magnetization       =     4.74 Bohr mag/cell
     absolute magnetization    =     6.98 Bohr mag/cell

     iteration # 16     ecut=    60.00 Ry     beta= 0.70
     Davidson diagonalization with overlap
     ethr =  2.66E-05,  avg # of iterations =  4.6

     negative rho (up, down):  1.021E-03 1.499E-04

     total cpu time spent up to now is      193.4 secs

     total energy              =    -958.25358997 Ry
     estimated scf accuracy    <       0.01279744 Ry

     total magnetization       =     4.81 Bohr mag/cell
     absolute magnetization    =     7.15 Bohr mag/cell

     iteration # 17     ecut=    60.00 Ry     beta= 0.70
     Davidson diagonalization with overlap
     ethr =  2.13E-05,  avg # of iterations =  1.1

     negative rho (up, down):  1.004E-03 1.420E-04

     total cpu time spent up to now is      202.6 secs

     total energy              =    -958.25345762 Ry
     estimated scf accuracy    <       0.00358639 Ry

     total magnetization       =     4.76 Bohr mag/cell
     absolute magnetization    =     7.07 Bohr mag/cell

     iteration # 18     ecut=    60.00 Ry     beta= 0.70
     Davidson diagonalization with overlap
     ethr =  5.98E-06,  avg # of iterations =  4.2

     negative rho (up, down):  1.006E-03 1.413E-04

     total cpu time spent up to now is      213.4 secs

     total energy              =    -958.25422211 Ry
     estimated scf accuracy    <       0.00128311 Ry

     total magnetization       =     4.71 Bohr mag/cell
     absolute magnetization    =     6.96 Bohr mag/cell

     iteration # 19     ecut=    60.00 Ry     beta= 0.70
     Davidson diagonalization with overlap
     ethr =  2.14E-06,  avg # of iterations =  2.3

     negative rho (up, down):  9.801E-04 1.395E-04

     total cpu time spent up to now is      223.3 secs

     total energy              =    -958.25437418 Ry
     estimated scf accuracy    <       0.00014978 Ry

     total magnetization       =     4.72 Bohr mag/cell
     absolute magnetization    =     6.99 Bohr mag/cell

     iteration # 20     ecut=    60.00 Ry     beta= 0.70
     Davidson diagonalization with overlap
     ethr =  2.50E-07,  avg # of iterations =  4.9

     negative rho (up, down):  9.676E-04 1.362E-04

     total cpu time spent up to now is      235.3 secs

     total energy              =    -958.25443821 Ry
     estimated scf accuracy    <       0.00008528 Ry

     total magnetization       =     4.70 Bohr mag/cell
     absolute magnetization    =     6.92 Bohr mag/cell

     iteration # 21     ecut=    60.00 Ry     beta= 0.70
     Davidson diagonalization with overlap
     ethr =  1.42E-07,  avg # of iterations =  4.4

     negative rho (up, down):  9.601E-04 1.351E-04

     total cpu time spent up to now is      246.6 secs

     total energy              =    -958.25448083 Ry
     estimated scf accuracy    <       0.00002353 Ry

     total magnetization       =     4.68 Bohr mag/cell
     absolute magnetization    =     6.87 Bohr mag/cell

     iteration # 22     ecut=    60.00 Ry     beta= 0.70
     Davidson diagonalization with overlap
     ethr =  3.92E-08,  avg # of iterations =  4.4

     negative rho (up, down):  9.602E-04 1.345E-04

     total cpu time spent up to now is      258.2 secs

     total energy              =    -958.25449550 Ry
     estimated scf accuracy    <       0.00000323 Ry

     total magnetization       =     4.66 Bohr mag/cell
     absolute magnetization    =     6.83 Bohr mag/cell

     iteration # 23     ecut=    60.00 Ry     beta= 0.70
     Davidson diagonalization with overlap
     ethr =  5.39E-09,  avg # of iterations =  3.9

     negative rho (up, down):  9.592E-04 1.344E-04

     total cpu time spent up to now is      269.3 secs

     total energy              =    -958.25449657 Ry
     estimated scf accuracy    <       0.00000170 Ry

     total magnetization       =     4.66 Bohr mag/cell
     absolute magnetization    =     6.83 Bohr mag/cell

     iteration # 24     ecut=    60.00 Ry     beta= 0.70
     Davidson diagonalization with overlap
     ethr =  2.83E-09,  avg # of iterations =  3.1

     negative rho (up, down):  9.594E-04 1.345E-04

     total cpu time spent up to now is      279.5 secs

     total energy              =    -958.25449686 Ry
     estimated scf accuracy    <       0.00000039 Ry

     total magnetization       =     4.66 Bohr mag/cell
     absolute magnetization    =     6.83 Bohr mag/cell

     iteration # 25     ecut=    60.00 Ry     beta= 0.70
     Davidson diagonalization with overlap
     ethr =  6.51E-10,  avg # of iterations =  3.7

     negative rho (up, down):  9.590E-04 1.344E-04

     total cpu time spent up to now is      290.0 secs

     total energy              =    -958.25449692 Ry
     estimated scf accuracy    <       0.00000004 Ry

     total magnetization       =     4.66 Bohr mag/cell
     absolute magnetization    =     6.83 Bohr mag/cell

     iteration # 26     ecut=    60.00 Ry     beta= 0.70
     Davidson diagonalization with overlap
     ethr =  6.04E-11,  avg # of iterations =  5.0

     negative rho (up, down):  9.589E-04 1.344E-04

     Magnetic moment per site  (integrated on atomic sphere of radius R)
     atom   1 (R=0.179)  charge= 14.6890  magn=  1.5494
     atom   2 (R=0.179)  charge= 15.7891  magn=  1.2440
     atom   3 (R=0.179)  charge= 13.4291  magn=  2.8565
     atom   4 (R=0.179)  charge=  9.9954  magn= -0.6311

     total cpu time spent up to now is      303.3 secs

     End of self-consistent calculation

 ------ SPIN UP ------------


          k = 0.0000 0.0000 0.0000 (  2837 PWs)   bands (ev):

   -80.1298 -71.7261 -64.8147 -43.3823 -43.3823 -43.3823 -40.9204 -37.7834
   -37.7834 -37.7834 -33.5390 -33.5390 -33.5390 -17.1710 -17.1710 -17.1710
     8.1253  11.7013  11.7013  12.9724  12.9724  12.9724  13.0826  13.0826
    13.0826  14.2618  14.2618  14.2618  14.5204  14.5204  14.9426  14.9426
    17.1947  17.1947  17.1947  18.0412

          k =-0.1250 0.1250-0.1250 (  2824 PWs)   bands (ev):

   -80.1298 -71.7261 -64.8147 -43.3825 -43.3823 -43.3823 -40.9204 -37.7834
   -37.7834 -37.7831 -33.5391 -33.5390 -33.5390 -17.1728 -17.1712 -17.1712
     8.3458  11.7916  11.7916  12.7679  12.9116  12.9116  13.1494  13.1494
    13.1800  14.1846  14.1846  14.3077  14.5531  14.5531  14.9563  14.9563
    16.7700  17.1504  17.1504  17.9362

          k =-0.2500 0.2500-0.2500 (  2860 PWs)   bands (ev):

   -80.1298 -71.7262 -64.8148 -43.3830 -43.3824 -43.3824 -40.9202 -37.7837
   -37.7837 -37.7828 -33.5394 -33.5389 -33.5389 -17.1770 -17.1716 -17.1716
     8.9808  12.0419  12.0419  12.6127  12.8749  12.8749  12.9896  13.1947
    13.1947  13.9710  13.9710  14.3720  14.6155  14.6155  15.0146  15.0146
    15.8964  16.9674  16.9674  17.7816

          k =-0.3750 0.3750-0.3750 (  2869 PWs)   bands (ev):

   -80.1298 -71.7262 -64.8148 -43.3835 -43.3824 -43.3824 -40.9201 -37.7839
   -37.7839 -37.7822 -33.5397 -33.5387 -33.5387 -17.1812 -17.1721 -17.1721
     9.9470  12.2555  12.3833  12.3833  12.7211  12.9054  12.9054  13.1410
    13.1410  13.7011  13.7011  14.0507  14.6600  14.6600  15.1053  15.1053
    15.5520  16.6826  16.6826  17.7520

          k = 0.5000-0.5000 0.5000 (  2884 PWs)   bands (ev):

   -80.1298 -71.7263 -64.8148 -43.3837 -43.3824 -43.3824 -40.9201 -37.7840
   -37.7840 -37.7821 -33.5398 -33.5387 -33.5387 -17.1829 -17.1723 -17.1723
    10.9303  11.3308  12.6109  12.6109  12.9222  12.9404  12.9404  13.0391
    13.0391  13.5624  13.5624  13.6264  14.6746  14.6746  15.1526  15.1526
    15.6807  16.5429  16.5429  17.7650

          k = 0.0000 0.2500 0.0000 (  2826 PWs)   bands (ev):

   -80.1298 -71.7260 -64.8147 -43.3825 -43.3823 -43.3823 -40.9203 -37.7834
   -37.7834 -37.7830 -33.5392 -33.5389 -33.5389 -17.1732 -17.1713 -17.1713
     8.4187  11.8186  11.8198  12.7510  12.8458  12.8680  12.8680  13.3541
    13.3541  14.1805  14.2889  14.2889  14.4767  14.5914  14.8911  15.0035
    16.9108  16.9108  17.1174  17.7925

          k =-0.1250 0.3750-0.1250 (  2861 PWs)   bands (ev):

   -80.1298 -71.7262 -64.8148 -43.3829 -43.3824 -43.3824 -40.9202 -37.7837
   -37.7836 -37.7828 -33.5395 -33.5389 -33.5388 -17.1763 -17.1718 -17.1717
     8.9127  12.0042  12.0121  12.4826  12.6298  12.8551  12.9255  13.4475
    13.4931  14.0848  14.1391  14.3582  14.5371  14.6348  14.9010  15.0386
    16.2019  16.6602  17.1495  17.5840

          k =-0.2500 0.5000-0.2500 (  2879 PWs)   bands (ev):

   -80.1298 -71.7262 -64.8148 -43.3835 -43.3824 -43.3824 -40.9201 -37.7840
   -37.7838 -37.7823 -33.5397 -33.5388 -33.5387 -17.1799 -17.1727 -17.1722
     9.7587  12.2000  12.3051  12.3120  12.5001  12.8981  12.9927  13.3090
    13.4817  13.8057  13.8797  14.2463  14.6042  14.6737  15.0251  15.0594
    15.5655  16.4761  16.8667  17.6364

          k = 0.6250-0.3750 0.6250 (  2870 PWs)   bands (ev):

   -80.1298 -71.7262 -64.8148 -43.3838 -43.3824 -43.3824 -40.9201 -37.7840
   -37.7838 -37.7820 -33.5398 -33.5388 -33.5387 -17.1820 -17.1734 -17.1724
    10.7917  11.5481  12.4690  12.5813  12.6249  12.9758  13.0839  13.2302
    13.2413  13.5644  13.6807  13.7870  14.6313  14.6965  15.0635  15.1078
    15.6077  16.4855  16.5311  17.7398

          k = 0.5000-0.2500 0.5000 (  2858 PWs)   bands (ev):

   -80.1298 -71.7261 -64.8148 -43.3837 -43.3824 -43.3824 -40.9201 -37.7839
   -37.7837 -37.7820 -33.5398 -33.5388 -33.5387 -17.1815 -17.1734 -17.1723
    10.4339  11.8855  12.3721  12.6137  12.6371  12.8912  13.0476  13.1095
    13.3708  13.6100  13.6887  13.9228  14.6414  14.6995  15.0218  15.1043
    15.5642  16.3215  16.7368  17.7417

          k = 0.3750-0.1250 0.3750 (  2861 PWs)   bands (ev):

   -80.1298 -71.7262 -64.8148 -43.3833 -43.3824 -43.3824 -40.9202 -37.7837
   -37.7837 -37.7825 -33.5395 -33.5389 -33.5388 -17.1786 -17.1727 -17.1719
     9.4408  12.1441  12.2602  12.4477  12.5886  12.8660  13.0332  13.2036
    13.4359  13.8257  13.9482  14.3402  14.6318  14.6682  14.9309  15.0658
    15.7112  16.3246  17.1397  17.6282

          k = 0.2500 0.0000 0.2500 (  2850 PWs)   bands (ev):

   -80.1298 -71.7262 -64.8147 -43.3828 -43.3824 -43.3823 -40.9203 -37.7836
   -37.7835 -37.7830 -33.5393 -33.5389 -33.5389 -17.1750 -17.1718 -17.1714
     8.7032  11.9180  11.9464  12.6513  12.7095  12.9146  13.0269  13.2435
    13.3754  14.0338  14.1880  14.3168  14.5848  14.6036  14.9154  15.0172
    16.4622  16.5736  17.3354  17.6780

          k = 0.0000 0.5000 0.0000 (  2858 PWs)   bands (ev):

   -80.1298 -71.7262 -64.8148 -43.3831 -43.3824 -43.3824 -40.9202 -37.7839
   -37.7839 -37.7821 -33.5398 -33.5387 -33.5387 -17.1780 -17.1720 -17.1720
     9.2533  12.0642  12.1540  12.1557  12.3838  12.8498  12.8498  13.7381
    13.7381  14.2172  14.2948  14.4549  14.4549  14.6447  14.7910  15.0669
    16.3586  16.3586  16.9253  17.2498

          k =-0.1250 0.6250-0.1250 (  2868 PWs)   bands (ev):

   -80.1298 -71.7262 -64.8148 -43.3836 -43.3825 -43.3825 -40.9200 -37.7841
   -37.7840 -37.7817 -33.5401 -33.5387 -33.5386 -17.1802 -17.1730 -17.1724
     9.9442  11.8694  12.1613  12.2504  12.4094  12.8840  12.9177  13.7581
    13.7884  14.0292  14.2846  14.4195  14.5233  14.6995  14.8998  15.0809
    15.7568  16.2188  16.7769  17.2293

          k = 0.7500-0.2500 0.7500 (  2864 PWs)   bands (ev):

   -80.1298 -71.7262 -64.8148 -43.3839 -43.3825 -43.3824 -40.9200 -37.7842
   -37.7838 -37.7816 -33.5401 -33.5388 -33.5386 -17.1809 -17.1748 -17.1726
    10.8331  11.6101  12.0943  12.3860  12.6520  12.9757  13.1039  13.5553
    13.6328  13.7503  14.0345  14.1653  14.4986  14.7293  15.0120  15.0540
    15.4714  16.3542  16.3836  17.4964

          k = 0.6250-0.1250 0.6250 (  2861 PWs)   bands (ev):

   -80.1298 -71.7261 -64.8148 -43.3840 -43.3825 -43.3824 -40.9200 -37.7841
   -37.7836 -37.7818 -33.5399 -33.5390 -33.5386 -17.1800 -17.1763 -17.1726
    10.9902  11.7359  12.1653  12.3861  12.7564  13.0409  13.1997  13.3290
    13.5521  13.5967  13.7829  13.9810  14.5465  14.7003  14.9986  15.0479
    15.4468  16.0594  16.6204  17.6681

          k = 0.5000 0.0000 0.5000 (  2854 PWs)   bands (ev):

   -80.1298 -71.7261 -64.8148 -43.3838 -43.3824 -43.3824 -40.9201 -37.7839
   -37.7836 -37.7821 -33.5397 -33.5390 -33.5387 -17.1794 -17.1751 -17.1723
    10.1893  12.1879  12.2174  12.4193  12.6176  12.8511  13.0479  13.3315
    13.5910  13.6573  13.8316  14.2249  14.6041  14.7196  14.8769  15.0688
    15.5330  15.8865  16.9425  17.7056

          k = 0.0000 0.7500 0.0000 (  2854 PWs)   bands (ev):

   -80.1298 -71.7261 -64.8148 -43.3837 -43.3825 -43.3825 -40.9199 -37.7842
   -37.7842 -37.7810 -33.5405 -33.5386 -33.5386 -17.1819 -17.1727 -17.1727
    10.4618  11.5961  11.9171  12.2024  12.6412  12.8855  12.8855  13.9196
    13.9534  13.9534  14.3736  14.6378  14.7306  14.7970  14.7970  15.1281
    16.0892  16.0892  16.3370  16.8060

          k = 0.8750-0.1250 0.8750 (  2859 PWs)   bands (ev):

   -80.1298 -71.7261 -64.8148 -43.3840 -43.3826 -43.3825 -40.9199 -37.7842
   -37.7842 -37.7809 -33.5406 -33.5386 -33.5385 -17.1823 -17.1738 -17.1729
    11.1555  11.4778  11.8043  12.1198  12.8304  12.9722  12.9732  13.5783
    13.9257  14.0852  14.2795  14.4946  14.5534  14.9275  14.9845  15.2209
    15.6213  15.9657  16.2694  17.0254

          k = 0.7500 0.0000 0.7500 (  2870 PWs)   bands (ev):

   -80.1298 -71.7262 -64.8148 -43.3841 -43.3825 -43.3824 -40.9199 -37.7843
   -37.7839 -37.7813 -33.5403 -33.5388 -33.5385 -17.1805 -17.1763 -17.1728
    11.3406  11.7614  11.8241  12.0952  12.8299  13.1223  13.1836  13.3161
    13.8353  13.8765  13.9804  14.3312  14.4002  14.8825  14.9802  15.1847
    15.2957  15.8561  16.4559  17.3234

          k = 0.0000-1.0000 0.0000 (  2874 PWs)   bands (ev):

   -80.1298 -71.7262 -64.8148 -43.3840 -43.3826 -43.3826 -40.9198 -37.7844
   -37.7844 -37.7807 -33.5409 -33.5385 -33.5385 -17.1833 -17.1730 -17.1730
    11.3871  11.5764  11.5810  11.9030  12.9070  12.9070  13.0184  13.5787
    14.0161  14.0161  14.4979  14.5900  14.7136  14.8899  14.8899  15.3553
    15.5538  16.2895  16.2895  16.7212

          k =-0.2500 0.5000 0.0000 (  2861 PWs)   bands (ev):

   -80.1298 -71.7262 -64.8148 -43.3834 -43.3824 -43.3824 -40.9201 -37.7839
   -37.7838 -37.7823 -33.5397 -33.5388 -33.5387 -17.1786 -17.1729 -17.1721
     9.5063  12.1443  12.2073  12.2727  12.4273  12.8822  12.9298  13.5321
    13.6388  13.9768  14.0668  14.3643  14.6168  14.6791  14.8465  15.0709
    15.9671  16.0342  17.1701  17.4213

          k = 0.6250-0.3750 0.8750 (  2854 PWs)   bands (ev):

   -80.1298 -71.7261 -64.8148 -43.3838 -43.3825 -43.3824 -40.9200 -37.7840
   -37.7837 -37.7819 -33.5398 -33.5389 -33.5386 -17.1803 -17.1745 -17.1725
    10.3680  11.9259  12.2761  12.3090  12.6352  12.9398  13.0334  13.4469
    13.6183  13.7050  13.8955  14.1391  14.5933  14.7300  14.9099  15.1001
    15.5059  16.0752  16.7867  17.6225

          k = 0.5000-0.2500 0.7500 (  2848 PWs)   bands (ev):

   -80.1298 -71.7261 -64.8148 -43.3840 -43.3825 -43.3824 -40.9200 -37.7840
   -37.7835 -37.7818 -33.5399 -33.5390 -33.5386 -17.1808 -17.1752 -17.1727
    11.1428  11.4460  12.2881  12.3429  12.8466  13.0183  13.1960  13.2919
    13.4840  13.5858  13.7665  13.8717  14.5782  14.7369  14.9426  15.0909
    15.5339  16.3042  16.4556  17.7345

          k = 0.7500-0.2500 1.0000 (  2856 PWs)   bands (ev):

   -80.1298 -71.7261 -64.8148 -43.3839 -43.3825 -43.3824 -40.9199 -37.7842
   -37.7839 -37.7813 -33.5403 -33.5388 -33.5385 -17.1811 -17.1740 -17.1729
    10.6439  11.6761  11.9825  12.2576  12.6917  12.9548  12.9769  13.7089
    13.7418  13.9935  14.2457  14.2851  14.5721  14.7801  14.9425  15.1830
    15.6057  15.9245  16.5168  17.2859

          k = 0.6250-0.1250 0.8750 (  2866 PWs)   bands (ev):

   -80.1298 -71.7262 -64.8148 -43.3841 -43.3825 -43.3824 -40.9199 -37.7843
   -37.7836 -37.7815 -33.5402 -33.5390 -33.5385 -17.1801 -17.1763 -17.1732
    11.3412  11.5460  11.9422  12.1742  12.9148  13.0955  13.1669  13.4627
    13.6569  13.7887  13.9500  14.1684  14.5288  14.8547  14.9808  15.1683
    15.4150  16.0468  16.1970  17.5451

          k = 0.5000 0.0000 0.7500 (  2864 PWs)   bands (ev):

   -80.1298 -71.7261 -64.8148 -43.3841 -43.3825 -43.3824 -40.9199 -37.7842
   -37.7835 -37.7818 -33.5399 -33.5391 -33.5385 -17.1790 -17.1772 -17.1730
    11.0408  11.8224  12.0437  12.1974  12.9234  13.1093  13.1329  13.4289
    13.5664  13.7181  13.9185  13.9847  14.5348  14.7515  14.9569  15.2250
    15.3333  15.9202  16.5096  17.7270

          k =-0.2500-1.0000 0.0000 (  2862 PWs)   bands (ev):

   -80.1298 -71.7262 -64.8148 -43.3841 -43.3826 -43.3825 -40.9198 -37.7845
   -37.7839 -37.7810 -33.5406 -33.5388 -33.5384 -17.1818 -17.1745 -17.1733
    11.4674  11.6493  11.6500  11.9888  12.9242  12.9962  13.1145  13.4567
    13.8388  14.0844  14.2162  14.2479  14.5623  14.9493  15.1608  15.3702
    15.5978  15.6714  16.0268  17.3003

          k =-0.5000-1.0000 0.0000 (  2872 PWs)   bands (ev):

   -80.1298 -71.7262 -64.8148 -43.3842 -43.3826 -43.3823 -40.9199 -37.7845
   -37.7835 -37.7816 -33.5401 -33.5392 -33.5384 -17.1784 -17.1779 -17.1737
    11.6078  11.6543  11.7295  12.0607  13.1463  13.1841  13.1929  13.4882
    13.6061  13.6220  13.8216  14.2323  14.5383  14.9819  15.0653  15.2431
    15.4845  15.8280  15.9207  17.7268

 ------ SPIN DOWN ----------


          k = 0.0000 0.0000 0.0000 (  2837 PWs)   bands (ev):

   -78.4082 -69.8967 -61.5100 -41.7309 -41.7309 -41.7309 -41.5383 -36.0013
   -36.0013 -36.0013 -30.3160 -30.3160 -30.3160 -17.7939 -17.7939 -17.7939
     8.0899  12.8506  12.8506  13.8744  13.8744  13.8744  14.0272  14.0272
    14.0272  15.2380  15.2380  15.2380  16.4811  16.4811  17.4236  17.4236
    18.2245  18.2245  18.2245  18.4827

          k =-0.1250 0.1250-0.1250 (  2824 PWs)   bands (ev):

   -78.4082 -69.8966 -61.5100 -41.7338 -41.7309 -41.7309 -41.5355 -36.0012
   -36.0012 -36.0011 -30.3162 -30.3160 -30.3160 -17.7957 -17.7941 -17.7941
     8.3119  12.9396  12.9396  13.6966  13.8613  13.8613  13.9749  14.0930
    14.0930  15.1895  15.1895  15.3319  16.5043  16.5043  17.3944  17.3944
    17.8133  18.1240  18.1240  18.3825

          k =-0.2500 0.2500-0.2500 (  2860 PWs)   bands (ev):

   -78.4082 -69.8968 -61.5100 -41.7404 -41.7309 -41.7309 -41.5290 -36.0015
   -36.0015 -36.0010 -30.3166 -30.3159 -30.3159 -17.7998 -17.7946 -17.7946
     8.9539  13.1814  13.1814  13.4278  13.5855  13.9027  13.9027  14.1860
    14.1860  15.0326  15.0326  15.5006  16.5863  16.5863  17.0232  17.3405
    17.3405  17.8635  17.8635  18.1236

          k =-0.3750 0.3750-0.3750 (  2869 PWs)   bands (ev):

   -78.4082 -69.8968 -61.5101 -41.7467 -41.7310 -41.7310 -41.5228 -36.0018
   -36.0018 -36.0007 -30.3170 -30.3158 -30.3158 -17.8040 -17.7950 -17.7950
     9.9436  12.4231  13.4909  13.4909  13.7168  14.0274  14.0274  14.2098
    14.2098  14.7891  14.7891  15.1054  16.7311  16.7311  16.9736  17.3169
    17.3169  17.5717  17.5717  17.8103

          k = 0.5000-0.5000 0.5000 (  2884 PWs)   bands (ev):

   -78.4082 -69.8968 -61.5101 -41.7493 -41.7310 -41.7310 -41.5203 -36.0019
   -36.0019 -36.0006 -30.3172 -30.3157 -30.3157 -17.8057 -17.7952 -17.7952
    11.0831  11.2448  13.6666  13.6666  14.0643  14.1301  14.1301  14.1789
    14.1789  14.5105  14.6305  14.6305  16.8312  16.8312  17.3352  17.3352
    17.4241  17.4241  17.5614  17.6398

          k = 0.0000 0.2500 0.0000 (  2826 PWs)   bands (ev):

   -78.4082 -69.8966 -61.5100 -41.7347 -41.7309 -41.7309 -41.5346 -36.0013
   -36.0013 -36.0010 -30.3163 -30.3160 -30.3160 -17.7962 -17.7942 -17.7942
     8.3854  12.9314  12.9952  13.6513  13.6934  13.8369  13.8369  14.2889
    14.2889  15.2232  15.2232  15.2851  16.4455  16.5464  17.2871  17.4722
    17.8824  17.8824  18.1040  18.2722

          k =-0.1250 0.3750-0.1250 (  2861 PWs)   bands (ev):

   -78.4082 -69.8968 -61.5100 -41.7400 -41.7310 -41.7310 -41.5293 -36.0016
   -36.0015 -36.0009 -30.3166 -30.3159 -30.3159 -17.7992 -17.7947 -17.7945
     8.8853  13.0484  13.2089  13.2941  13.5057  13.8733  13.9213  14.3540
    14.4832  15.1001  15.1446  15.4604  16.4531  16.5971  17.1631  17.2361
    17.4852  17.5581  17.9101  18.1575

          k =-0.2500 0.5000-0.2500 (  2879 PWs)   bands (ev):

   -78.4082 -69.8968 -61.5101 -41.7464 -41.7310 -41.7310 -41.5231 -36.0019
   -36.0017 -36.0007 -30.3170 -30.3159 -30.3158 -17.8027 -17.7956 -17.7950
     9.7518  12.6818  13.2118  13.5003  13.5081  13.9826  14.0679  14.2724
    14.5365  14.8974  14.9148  15.3708  16.5945  16.6468  16.8581  17.0753
    17.3170  17.4496  17.5868  18.0099

          k = 0.6250-0.3750 0.6250 (  2870 PWs)   bands (ev):

   -78.4082 -69.8967 -61.5101 -41.7501 -41.7310 -41.7310 -41.5195 -36.0019
   -36.0017 -36.0005 -30.3172 -30.3159 -30.3157 -17.8048 -17.7962 -17.7953
    10.8670  11.6569  13.3430  13.6949  13.7221  14.1237  14.2335  14.3538
    14.3653  14.6688  14.7279  14.7998  16.7042  16.7676  17.0102  17.1978
    17.2889  17.3559  17.5431  17.8609

          k = 0.5000-0.2500 0.5000 (  2858 PWs)   bands (ev):

   -78.4082 -69.8967 -61.5101 -41.7493 -41.7310 -41.7310 -41.5203 -36.0018
   -36.0017 -36.0005 -30.3171 -30.3160 -30.3157 -17.8042 -17.7962 -17.7952
    10.4695  12.0695  13.3635  13.6261  13.6638  14.1095  14.1407  14.1899
    14.4836  14.6876  14.7799  14.9685  16.6944  16.7385  16.9634  17.2001
    17.2375  17.3163  17.4309  17.9438

          k = 0.3750-0.1250 0.3750 (  2861 PWs)   bands (ev):

   -78.4082 -69.8967 -61.5100 -41.7443 -41.7310 -41.7310 -41.5252 -36.0016
   -36.0016 -36.0008 -30.3168 -30.3160 -30.3158 -17.8014 -17.7955 -17.7948
     9.4250  13.0294  13.2605  13.3480  13.4856  13.9722  14.0561  14.0999
    14.4410  14.8965  15.0144  15.4923  16.5595  16.6530  16.8593  17.1474
    17.3000  17.4175  17.6668  18.1595

          k = 0.2500 0.0000 0.2500 (  2850 PWs)   bands (ev):

   -78.4082 -69.8967 -61.5100 -41.7379 -41.7310 -41.7309 -41.5315 -36.0014
   -36.0014 -36.0011 -30.3164 -30.3160 -30.3159 -17.7979 -17.7946 -17.7944
     8.6729  13.0668  13.0772  13.5201  13.6049  13.9058  14.0119  14.0686
    14.3089  15.0798  15.1772  15.4332  16.4874  16.5757  17.2708  17.4317
    17.4992  17.5550  18.0468  18.2801

          k = 0.0000 0.5000 0.0000 (  2858 PWs)   bands (ev):

   -78.4082 -69.8967 -61.5100 -41.7433 -41.7310 -41.7310 -41.5260 -36.0017
   -36.0017 -36.0004 -30.3170 -30.3158 -30.3158 -17.8009 -17.7948 -17.7948
     9.2324  12.8954  12.9407  13.3578  13.4102  13.8914  13.8914  14.8363
    14.8363  15.2236  15.2236  15.4379  16.2723  16.6006  16.9732  17.1937
    17.1937  17.5568  17.7346  17.9825

          k =-0.1250 0.6250-0.1250 (  2868 PWs)   bands (ev):

   -78.4082 -69.8967 -61.5101 -41.7483 -41.7311 -41.7311 -41.5211 -36.0020
   -36.0019 -36.0002 -30.3174 -30.3159 -30.3158 -17.8031 -17.7957 -17.7951
     9.9468  12.5635  12.7837  13.3060  13.7022  13.9673  14.0035  14.8911
    14.9866  15.1485  15.1588  15.5365  16.2406  16.5756  16.8082  16.8109
    17.0106  17.5174  17.5544  17.9270

          k = 0.7500-0.2500 0.7500 (  2864 PWs)   bands (ev):

   -78.4082 -69.8967 -61.5101 -41.7521 -41.7311 -41.7310 -41.5175 -36.0020
   -36.0018 -36.0001 -30.3174 -30.3160 -30.3157 -17.8037 -17.7976 -17.7954
    10.9141  12.0360  12.7909  13.2659  13.9210  14.1086  14.2517  14.6993
    14.7238  14.9174  14.9935  15.1847  16.4076  16.5420  16.6764  17.0352
    17.2223  17.2248  17.5474  17.9375

          k = 0.6250-0.1250 0.6250 (  2861 PWs)   bands (ev):

   -78.4082 -69.8967 -61.5101 -41.7525 -41.7311 -41.7310 -41.5172 -36.0020
   -36.0016 -36.0004 -30.3172 -30.3163 -30.3157 -17.8027 -17.7991 -17.7954
    11.1654  11.9714  12.8703  13.2490  13.9242  14.1939  14.3609  14.4726
    14.6252  14.6710  14.8977  14.9854  16.4514  16.6524  16.7499  16.8945
    17.1659  17.3871  17.4826  18.0190

          k = 0.5000 0.0000 0.5000 (  2854 PWs)   bands (ev):

   -78.4082 -69.8967 -61.5101 -41.7493 -41.7310 -41.7310 -41.5203 -36.0018
   -36.0016 -36.0006 -30.3169 -30.3163 -30.3157 -17.8022 -17.7978 -17.7952
    10.2185  12.7316  12.9609  13.3789  13.6612  14.0830  14.1157  14.3210
    14.5996  14.7373  14.9343  15.3496  16.4612  16.6693  16.6907  17.0504
    17.1571  17.2065  17.4221  18.1288

          k = 0.0000 0.7500 0.0000 (  2854 PWs)   bands (ev):

   -78.4082 -69.8967 -61.5101 -41.7514 -41.7312 -41.7312 -41.5180 -36.0021
   -36.0021 -35.9996 -30.3179 -30.3157 -30.3157 -17.8048 -17.7954 -17.7954
    10.4949  12.3076  12.4984  13.0834  13.9860  13.9860  14.0257  15.1409
    15.1409  15.6357  15.6904  15.6904  15.7832  16.5416  16.6039  16.6039
    16.7684  17.4552  17.5097  17.7053

          k = 0.8750-0.1250 0.8750 (  2859 PWs)   bands (ev):

   -78.4082 -69.8967 -61.5101 -41.7539 -41.7312 -41.7311 -41.5156 -36.0021
   -36.0021 -35.9996 -30.3180 -30.3158 -30.3157 -17.8051 -17.7965 -17.7956
    11.2788  12.1202  12.3257  12.8355  14.0390  14.1029  14.3021  14.9116
    15.0901  15.4246  15.5786  15.6973  15.8381  16.4720  16.4850  16.7490
    17.0198  17.3295  17.4626  17.6908

          k = 0.7500 0.0000 0.7500 (  2870 PWs)   bands (ev):

   -78.4082 -69.8967 -61.5101 -41.7544 -41.7311 -41.7310 -41.5152 -36.0022
   -36.0019 -35.9999 -30.3177 -30.3161 -30.3157 -17.8032 -17.7990 -17.7956
    11.7431  12.0821  12.2429  12.8517  14.0767  14.3516  14.3582  14.5201
    14.9117  15.0481  15.0768  15.2291  16.2014  16.4585  16.5399  17.0652
    17.0978  17.3109  17.6858  17.8282

          k = 0.0000-1.0000 0.0000 (  2874 PWs)   bands (ev):

   -78.4082 -69.8967 -61.5101 -41.7547 -41.7312 -41.7312 -41.5148 -36.0023
   -36.0023 -35.9994 -30.3183 -30.3156 -30.3156 -17.8061 -17.7956 -17.7956
    11.8152  11.8249  12.1036  12.6388  14.0305  14.0305  14.5157  15.1707
    15.1707  15.3063  15.7338  16.1822  16.1822  16.3785  16.3785  16.4665
    16.7209  17.3837  17.3942  17.5587

          k =-0.2500 0.5000 0.0000 (  2861 PWs)   bands (ev):

   -78.4082 -69.8967 -61.5101 -41.7452 -41.7310 -41.7310 -41.5243 -36.0018
   -36.0016 -36.0006 -30.3169 -30.3160 -30.3158 -17.8014 -17.7957 -17.7949
     9.4931  12.9241  13.0222  13.3950  13.4575  13.9615  13.9755  14.5011
    14.6705  14.9906  15.0877  15.5351  16.4418  16.6123  16.8939  17.0133
    17.1161  17.5095  17.6279  18.1548

          k = 0.6250-0.3750 0.8750 (  2854 PWs)   bands (ev):

   -78.4082 -69.8967 -61.5101 -41.7501 -41.7311 -41.7310 -41.5195 -36.0019
   -36.0016 -36.0004 -30.3171 -30.3162 -30.3157 -17.8030 -17.7972 -17.7954
    10.4051  12.3923  12.9589  13.3903  13.7641  14.0846  14.1613  14.4555
    14.6871  14.8052  14.9155  15.2646  16.5022  16.5936  16.7473  17.0288
    17.1510  17.2543  17.4974  18.0910

          k = 0.5000-0.2500 0.7500 (  2848 PWs)   bands (ev):

   -78.4082 -69.8966 -61.5101 -41.7522 -41.7311 -41.7310 -41.5175 -36.0019
   -36.0015 -36.0003 -30.3172 -30.3163 -30.3157 -17.8036 -17.7980 -17.7955
    11.3750  11.5487  13.0079  13.3573  13.9507  14.1808  14.3775  14.4130
    14.5524  14.6968  14.8430  14.8997  16.4936  16.7445  16.8185  16.9024
    17.2509  17.3588  17.6783  17.9480

          k = 0.7500-0.2500 1.0000 (  2856 PWs)   bands (ev):

   -78.4082 -69.8967 -61.5101 -41.7520 -41.7311 -41.7311 -41.5175 -36.0021
   -36.0018 -35.9999 -30.3176 -30.3160 -30.3156 -17.8039 -17.7967 -17.7957
    10.7015  12.3372  12.5521  13.1455  13.9940  14.0754  14.0996  14.9092
    14.9473  15.0744  15.2825  15.4546  16.1752  16.3859  16.7242  16.8470
    17.0337  17.3149  17.5316  17.8896

          k = 0.6250-0.1250 0.8750 (  2866 PWs)   bands (ev):

   -78.4082 -69.8967 -61.5101 -41.7541 -41.7311 -41.7310 -41.5156 -36.0022
   -36.0016 -36.0001 -30.3175 -30.3163 -30.3156 -17.8028 -17.7990 -17.7959
    11.5710  11.9706  12.5092  12.9503  14.1408  14.2593  14.3489  14.6400
    14.7790  14.8912  14.9901  15.1670  16.3111  16.3978  16.7441  16.9528
    17.1749  17.3542  17.6094  17.9157

          k = 0.5000 0.0000 0.7500 (  2864 PWs)   bands (ev):

   -78.4082 -69.8967 -61.5101 -41.7533 -41.7311 -41.7310 -41.5164 -36.0021
   -36.0015 -36.0003 -30.3172 -30.3165 -30.3156 -17.8017 -17.7999 -17.7958
    11.2180  12.3010  12.5212  13.1043  14.0631  14.2643  14.3267  14.5900
    14.6384  14.7315  14.9444  15.0648  16.3173  16.6864  16.7409  16.7915
    17.1393  17.3787  17.4767  18.0584

          k =-0.2500-1.0000 0.0000 (  2862 PWs)   bands (ev):

   -78.4082 -69.8967 -61.5101 -41.7548 -41.7312 -41.7311 -41.5148 -36.0023
   -36.0019 -35.9997 -30.3180 -30.3160 -30.3156 -17.8046 -17.7972 -17.7960
    11.9106  11.9562  12.1452  12.6825  14.1328  14.1456  14.4417  14.7603
    15.0049  15.2046  15.3776  15.6471  15.9337  16.2864  16.7058  16.8603
    17.2413  17.2566  17.4586  17.7064

          k =-0.5000-1.0000 0.0000 (  2872 PWs)   bands (ev):

   -78.4082 -69.8967 -61.5101 -41.7549 -41.7312 -41.7310 -41.5148 -36.0024
   -36.0015 -36.0002 -30.3174 -30.3166 -30.3155 -17.8011 -17.8006 -17.7964
    12.0171  12.1046  12.1899  12.7334  14.3114  14.4205  14.4435  14.4981
    14.8010  14.8019  14.8451  15.1027  16.2606  16.6222  16.6257  16.8437
    17.4051  17.5629  17.5714  17.8087

     the Fermi energy is    15.4458 ev

!    total energy              =    -958.25449695 Ry
     estimated scf accuracy    <          5.4E-09 Ry
     smearing contrib. (-TS)   =       0.00765702 Ry
     internal energy E=F+TS    =    -958.26215398 Ry

     The total energy is F=E-TS. E is the sum of the following terms:
     one-electron contribution =    -436.57260376 Ry
     hartree contribution      =     248.86429070 Ry
     xc contribution           =    -111.97962752 Ry
     ewald contribution        =    -582.42789790 Ry
     one-center paw contrib.   =     -76.14631549 Ry

     total magnetization       =     4.66 Bohr mag/cell
     absolute magnetization    =     6.82 Bohr mag/cell

     convergence has been achieved in  26 iterations

     negative rho (up, down):  9.589E-04 1.344E-04

     Forces acting on atoms (cartesian axes, Ry/au):

     atom    1 type  2   force =     0.00000000    0.00000000    0.00000000
     atom    2 type  1   force =     0.00000000    0.00000000   -0.00000000
     atom    3 type  3   force =     0.00000000    0.00000000    0.00000000
     atom    4 type  4   force =     0.00000000   -0.00000000    0.00000000

     Total force =     0.000000     Total SCF correction =     0.000000


     Computing stress (Cartesian axis) and pressure


     negative rho (up, down):  9.589E-04 1.344E-04
          total   stress  (Ry/bohr**3)                   (kbar)     P=     -134.87
  -0.00091682   0.00000000   0.00000000         -134.87        0.00        0.00
   0.00000000  -0.00091682   0.00000000            0.00     -134.87        0.00
   0.00000000  -0.00000000  -0.00091682            0.00       -0.00     -134.87


     BFGS Geometry Optimization
     Energy error            =      0.0E+00 Ry
     Gradient error          =      1.1E-30 Ry/Bohr
     Cell gradient error     =      1.3E+02 kbar

     number of scf cycles    =   1
     number of bfgs steps    =   0

     enthalpy           new  =    -958.2544969523 Ry

     new trust radius        =       0.0875276082 bohr
     new conv_thr            =       0.0000000100 Ry

     new unit-cell volume =    340.07036 a.u.^3 (    50.39323 Ang^3 )
     density =      7.16971 g/cm^3

CELL_PARAMETERS (alat= 11.34000000)
  -0.488539713   0.000000000   0.488539713
   0.000000000   0.488539713   0.488539713
  -0.488539713   0.488539713  -0.000000000

ATOMIC_POSITIONS (crystal)
Fe            0.0000000000        0.0000000000        0.0000000000
Co            0.5000000000        0.5000000000        0.5000000000
Mn            0.2500000000        0.2500000000        0.2500000000
Ti            0.7500000000        0.7500000000        0.7500000000



     Writing config-only to output data dir /home/washingmachine/Galaxy/CoFeMnTi-1/tmp/CoFeMnTi_config1.save/
     NEW-OLD atomic charge density approx. for the potential

     Check: negative core charge=   -0.000039

     negative rho (up, down):  8.824E-04 1.178E-04
     extrapolated charge   55.85783, renormalised to   60.00000
     Generating pointlists ...
     new r_m :   0.1745 (alat units)  1.9791 (a.u.) for type    1
     new r_m :   0.1745 (alat units)  1.9791 (a.u.) for type    2
     new r_m :   0.1745 (alat units)  1.9791 (a.u.) for type    3
     new r_m :   0.1745 (alat units)  1.9791 (a.u.) for type    4

     total cpu time spent up to now is      328.5 secs

     Self-consistent Calculation

     iteration #  1     ecut=    60.00 Ry     beta= 0.70
     Davidson diagonalization with overlap
     c_bands:  1 eigenvalues not converged
     c_bands:  1 eigenvalues not converged
     c_bands:  1 eigenvalues not converged
     c_bands:  1 eigenvalues not converged
     c_bands:  1 eigenvalues not converged
     c_bands:  1 eigenvalues not converged
     c_bands:  1 eigenvalues not converged
     c_bands:  1 eigenvalues not converged
     c_bands:  1 eigenvalues not converged
     c_bands:  1 eigenvalues not converged
     c_bands:  1 eigenvalues not converged
     c_bands:  1 eigenvalues not converged
     ethr =  1.00E-06,  avg # of iterations = 15.5

     negative rho (up, down):  1.528E-03 1.162E-03

     total cpu time spent up to now is      365.7 secs

     total energy              =    -932.82921000 Ry
     estimated scf accuracy    <      26.48816082 Ry

     total magnetization       =     2.36 Bohr mag/cell
     absolute magnetization    =     2.79 Bohr mag/cell

     iteration #  2     ecut=    60.00 Ry     beta= 0.70
     Davidson diagonalization with overlap
     ethr =  1.00E-02,  avg # of iterations =  6.5

     negative rho (up, down):  2.022E-05 0.000E+00

     total cpu time spent up to now is      383.6 secs

     total energy              =    -954.59055017 Ry
     estimated scf accuracy    <     200.10449514 Ry

     total magnetization       =     0.03 Bohr mag/cell
     absolute magnetization    =     0.53 Bohr mag/cell

     iteration #  3     ecut=    60.00 Ry     beta= 0.70
     Davidson diagonalization with overlap
     ethr =  1.00E-02,  avg # of iterations =  6.5

     negative rho (up, down):  1.010E-04 7.977E-05

     total cpu time spent up to now is      399.4 secs

     total energy              =    -959.52107711 Ry
     estimated scf accuracy    <      38.86196849 Ry

     total magnetization       =     1.56 Bohr mag/cell
     absolute magnetization    =     2.00 Bohr mag/cell

     iteration #  4     ecut=    60.00 Ry     beta= 0.70
     Davidson diagonalization with overlap
     ethr =  1.00E-02,  avg # of iterations =  4.1

     negative rho (up, down):  1.485E-04 1.098E-04

     total cpu time spent up to now is      411.8 secs

     total energy              =    -958.95557405 Ry
     estimated scf accuracy    <      28.11628906 Ry

     total magnetization       =     0.81 Bohr mag/cell
     absolute magnetization    =     0.93 Bohr mag/cell

     iteration #  5     ecut=    60.00 Ry     beta= 0.70
     Davidson diagonalization with overlap
     ethr =  1.00E-02,  avg # of iterations =  2.1

     negative rho (up, down):  3.444E-04 1.500E-04

     total cpu time spent up to now is      421.8 secs

     total energy              =    -957.97124811 Ry
     estimated scf accuracy    <      15.06339769 Ry

     total magnetization       =     1.94 Bohr mag/cell
     absolute magnetization    =     2.21 Bohr mag/cell

     iteration #  6     ecut=    60.00 Ry     beta= 0.70
     Davidson diagonalization with overlap
     ethr =  1.00E-02,  avg # of iterations =  2.0

     negative rho (up, down):  5.306E-04 3.806E-04

     total cpu time spent up to now is      431.7 secs

     total energy              =    -957.30543697 Ry
     estimated scf accuracy    <       6.12196626 Ry

     total magnetization       =     1.78 Bohr mag/cell
     absolute magnetization    =     1.99 Bohr mag/cell

     iteration #  7     ecut=    60.00 Ry     beta= 0.70
     Davidson diagonalization with overlap
     ethr =  1.00E-02,  avg # of iterations =  3.0

     negative rho (up, down):  3.617E-04 2.093E-04

     total cpu time spent up to now is      442.5 secs

     total energy              =    -957.98829696 Ry
     estimated scf accuracy    <       1.11117134 Ry

     total magnetization       =     3.76 Bohr mag/cell
     absolute magnetization    =     4.01 Bohr mag/cell

     iteration #  8     ecut=    60.00 Ry     beta= 0.70
     Davidson diagonalization with overlap
     ethr =  1.85E-03,  avg # of iterations =  5.0

     negative rho (up, down):  4.069E-04 3.115E-04

     total cpu time spent up to now is      454.6 secs

     total energy              =    -958.22294598 Ry
     estimated scf accuracy    <       1.96543448 Ry

     total magnetization       =     3.59 Bohr mag/cell
     absolute magnetization    =     3.83 Bohr mag/cell

     iteration #  9     ecut=    60.00 Ry     beta= 0.70
     Davidson diagonalization with overlap
     ethr =  1.85E-03,  avg # of iterations =  1.4

     negative rho (up, down):  4.279E-04 3.190E-04

     total cpu time spent up to now is      463.8 secs

     total energy              =    -958.29878479 Ry
     estimated scf accuracy    <       0.34450111 Ry

     total magnetization       =     3.86 Bohr mag/cell
     absolute magnetization    =     4.19 Bohr mag/cell

     iteration # 10     ecut=    60.00 Ry     beta= 0.70
     Davidson diagonalization with overlap
     ethr =  5.74E-04,  avg # of iterations =  2.5

     negative rho (up, down):  5.863E-04 3.672E-04

     total cpu time spent up to now is      473.6 secs

     total energy              =    -958.24997117 Ry
     estimated scf accuracy    <       0.41170670 Ry

     total magnetization       =     3.82 Bohr mag/cell
     absolute magnetization    =     4.23 Bohr mag/cell

     iteration # 11     ecut=    60.00 Ry     beta= 0.70
     Davidson diagonalization with overlap
     ethr =  5.74E-04,  avg # of iterations =  2.0

     negative rho (up, down):  5.802E-04 3.212E-04

     total cpu time spent up to now is      483.7 secs

     total energy              =    -958.22710436 Ry
     estimated scf accuracy    <       0.45361954 Ry

     total magnetization       =     4.12 Bohr mag/cell
     absolute magnetization    =     5.01 Bohr mag/cell

     iteration # 12     ecut=    60.00 Ry     beta= 0.70
     Davidson diagonalization with overlap
     ethr =  5.74E-04,  avg # of iterations =  1.8

     negative rho (up, down):  6.050E-04 2.852E-04

     total cpu time spent up to now is      493.3 secs

     total energy              =    -958.26295756 Ry
     estimated scf accuracy    <       0.02523338 Ry

     total magnetization       =     4.18 Bohr mag/cell
     absolute magnetization    =     5.13 Bohr mag/cell

     iteration # 13     ecut=    60.00 Ry     beta= 0.70
     Davidson diagonalization with overlap
     ethr =  4.21E-05,  avg # of iterations =  6.2

     negative rho (up, down):  6.363E-04 2.493E-04

     total cpu time spent up to now is      505.8 secs

     total energy              =    -958.26868005 Ry
     estimated scf accuracy    <       0.00978841 Ry

     total magnetization       =     4.16 Bohr mag/cell
     absolute magnetization    =     5.26 Bohr mag/cell

     iteration # 14     ecut=    60.00 Ry     beta= 0.70
     Davidson diagonalization with overlap
     ethr =  1.63E-05,  avg # of iterations =  1.6

     negative rho (up, down):  7.261E-04 1.519E-04

     total cpu time spent up to now is      515.2 secs

     total energy              =    -958.26917706 Ry
     estimated scf accuracy    <       0.00193386 Ry

     total magnetization       =     4.15 Bohr mag/cell
     absolute magnetization    =     5.32 Bohr mag/cell

     iteration # 15     ecut=    60.00 Ry     beta= 0.70
     Davidson diagonalization with overlap
     ethr =  3.22E-06,  avg # of iterations =  4.8

     negative rho (up, down):  7.428E-04 1.333E-04

     total cpu time spent up to now is      526.8 secs

     total energy              =    -958.27022373 Ry
     estimated scf accuracy    <       0.00054258 Ry

     total magnetization       =     4.17 Bohr mag/cell
     absolute magnetization    =     5.56 Bohr mag/cell

     iteration # 16     ecut=    60.00 Ry     beta= 0.70
     Davidson diagonalization with overlap
     ethr =  9.04E-07,  avg # of iterations =  2.9

     negative rho (up, down):  7.625E-04 1.249E-04

     total cpu time spent up to now is      537.1 secs

     total energy              =    -958.27035373 Ry
     estimated scf accuracy    <       0.00030411 Ry

     total magnetization       =     4.19 Bohr mag/cell
     absolute magnetization    =     5.61 Bohr mag/cell

     iteration # 17     ecut=    60.00 Ry     beta= 0.70
     Davidson diagonalization with overlap
     ethr =  5.07E-07,  avg # of iterations =  3.2

     negative rho (up, down):  7.897E-04 1.228E-04

     total cpu time spent up to now is      547.6 secs

     total energy              =    -958.27041892 Ry
     estimated scf accuracy    <       0.00078391 Ry

     total magnetization       =     4.20 Bohr mag/cell
     absolute magnetization    =     5.67 Bohr mag/cell

     iteration # 18     ecut=    60.00 Ry     beta= 0.70
     Davidson diagonalization with overlap
     ethr =  5.07E-07,  avg # of iterations =  3.5

     negative rho (up, down):  8.073E-04 1.215E-04

     total cpu time spent up to now is      558.4 secs

     total energy              =    -958.27056202 Ry
     estimated scf accuracy    <       0.00010732 Ry

     total magnetization       =     4.23 Bohr mag/cell
     absolute magnetization    =     5.77 Bohr mag/cell

     iteration # 19     ecut=    60.00 Ry     beta= 0.70
     Davidson diagonalization with overlap
     ethr =  1.79E-07,  avg # of iterations =  4.6

     negative rho (up, down):  8.267E-04 1.197E-04

     total cpu time spent up to now is      570.5 secs

     total energy              =    -958.27061748 Ry
     estimated scf accuracy    <       0.00014511 Ry

     total magnetization       =     4.26 Bohr mag/cell
     absolute magnetization    =     5.85 Bohr mag/cell

     iteration # 20     ecut=    60.00 Ry     beta= 0.70
     Davidson diagonalization with overlap
     ethr =  1.79E-07,  avg # of iterations =  4.5

     negative rho (up, down):  8.266E-04 1.197E-04

     total cpu time spent up to now is      582.2 secs

     total energy              =    -958.27071593 Ry
     estimated scf accuracy    <       0.00006184 Ry

     total magnetization       =     4.28 Bohr mag/cell
     absolute magnetization    =     5.93 Bohr mag/cell

     iteration # 21     ecut=    60.00 Ry     beta= 0.70
     Davidson diagonalization with overlap
     ethr =  1.03E-07,  avg # of iterations =  2.0

     negative rho (up, down):  8.254E-04 1.198E-04

     total cpu time spent up to now is      592.0 secs

     total energy              =    -958.27072530 Ry
     estimated scf accuracy    <       0.00000221 Ry

     total magnetization       =     4.29 Bohr mag/cell
     absolute magnetization    =     5.93 Bohr mag/cell

     iteration # 22     ecut=    60.00 Ry     beta= 0.70
     Davidson diagonalization with overlap
     ethr =  3.68E-09,  avg # of iterations =  4.9

     negative rho (up, down):  8.268E-04 1.197E-04

     total cpu time spent up to now is      604.7 secs

     total energy              =    -958.27072633 Ry
     estimated scf accuracy    <       0.00000119 Ry

     total magnetization       =     4.29 Bohr mag/cell
     absolute magnetization    =     5.93 Bohr mag/cell

     iteration # 23     ecut=    60.00 Ry     beta= 0.70
     Davidson diagonalization with overlap
     ethr =  1.98E-09,  avg # of iterations =  4.0

     negative rho (up, down):  8.269E-04 1.197E-04

     total cpu time spent up to now is      615.8 secs

     total energy              =    -958.27072696 Ry
     estimated scf accuracy    <       0.00000017 Ry

     total magnetization       =     4.29 Bohr mag/cell
     absolute magnetization    =     5.94 Bohr mag/cell

     iteration # 24     ecut=    60.00 Ry     beta= 0.70
     Davidson diagonalization with overlap
     ethr =  2.85E-10,  avg # of iterations =  3.9

     negative rho (up, down):  8.270E-04 1.197E-04

     total cpu time spent up to now is      626.8 secs

     total energy              =    -958.27072700 Ry
     estimated scf accuracy    <       0.00000002 Ry

     total magnetization       =     4.29 Bohr mag/cell
     absolute magnetization    =     5.94 Bohr mag/cell

     iteration # 25     ecut=    60.00 Ry     beta= 0.70
     Davidson diagonalization with overlap
     ethr =  3.23E-11,  avg # of iterations =  4.5

     negative rho (up, down):  8.273E-04 1.197E-04

     total cpu time spent up to now is      638.7 secs

     total energy              =    -958.27072700 Ry
     estimated scf accuracy    <       0.00000003 Ry

     total magnetization       =     4.29 Bohr mag/cell
     absolute magnetization    =     5.94 Bohr mag/cell

     iteration # 26     ecut=    60.00 Ry     beta= 0.70
     Davidson diagonalization with overlap
     ethr =  3.23E-11,  avg # of iterations =  4.4

     negative rho (up, down):  8.273E-04 1.197E-04

     Magnetic moment per site  (integrated on atomic sphere of radius R)
     atom   1 (R=0.175)  charge= 14.6384  magn=  1.2012
     atom   2 (R=0.175)  charge= 15.7380  magn=  1.1247
     atom   3 (R=0.175)  charge= 13.3723  magn=  2.6958
     atom   4 (R=0.175)  charge=  9.9490  magn= -0.4605

     total cpu time spent up to now is      650.4 secs

     End of self-consistent calculation

 ------ SPIN UP ------------


          k = 0.0000 0.0000 0.0000 (  2837 PWs)   bands (ev):

   -78.7330 -70.2295 -63.4646 -41.9936 -41.9936 -41.9936 -39.5515 -36.2956
   -36.2956 -36.2956 -32.1933 -32.1933 -32.1933 -15.8224 -15.8224 -15.8224
     9.1691  12.7587  12.7587  14.1913  14.1913  14.1913  14.3294  14.3294
    14.3294  15.6224  15.6224  15.6224  15.9498  15.9498  16.4367  16.4367
    18.6824  18.6824  18.6824  19.5200

          k =-0.1279 0.1279-0.1279 (  2824 PWs)   bands (ev):

   -78.7330 -70.2295 -63.4646 -41.9939 -41.9936 -41.9936 -39.5514 -36.2956
   -36.2956 -36.2952 -32.1934 -32.1932 -32.1932 -15.8249 -15.8227 -15.8227
     9.4029  12.8608  12.8608  13.9640  14.1244  14.1244  14.4042  14.4042
    14.4384  15.5444  15.5444  15.6918  15.9742  15.9742  16.4509  16.4509
    18.2187  18.6278  18.6278  19.4102

          k =-0.2559 0.2559-0.2559 (  2860 PWs)   bands (ev):

   -78.7330 -70.2295 -63.4646 -41.9947 -41.9936 -41.9936 -39.5512 -36.2960
   -36.2960 -36.2946 -32.1938 -32.1930 -32.1930 -15.8306 -15.8233 -15.8233
    10.0735  13.1445  13.1445  13.7862  14.0836  14.0836  14.2487  14.4558
    14.4558  15.3099  15.3099  15.8050  16.0373  16.0373  16.5070  16.5070
    17.2765  18.4176  18.4176  19.2454

          k =-0.3838 0.3838-0.3838 (  2869 PWs)   bands (ev):

   -78.7330 -70.2295 -63.4647 -41.9955 -41.9937 -41.9937 -39.5510 -36.2964
   -36.2964 -36.2936 -32.1942 -32.1928 -32.1928 -15.8363 -15.8239 -15.8239
    11.0868  13.4639  13.5342  13.5342  13.9343  14.1195  14.1195  14.3899
    14.3899  15.0062  15.0062  15.4204  16.0915  16.0915  16.5940  16.5940
    17.0017  18.1088  18.1088  19.2007

          k = 0.5117-0.5117 0.5117 (  2884 PWs)   bands (ev):

   -78.7330 -70.2295 -63.4647 -41.9959 -41.9937 -41.9937 -39.5510 -36.2966
   -36.2966 -36.2934 -32.1944 -32.1927 -32.1927 -15.8386 -15.8242 -15.8242
    12.1141  12.5148  13.8002  13.8002  14.1546  14.1563  14.1563  14.2683
    14.2683  14.8496  14.8496  14.9230  16.1103  16.1103  16.6406  16.6406
    17.2195  17.9601  17.9601  19.2056

          k = 0.0000 0.2559 0.0000 (  2826 PWs)   bands (ev):

   -78.7330 -70.2294 -63.4646 -41.9939 -41.9936 -41.9936 -39.5514 -36.2957
   -36.2957 -36.2950 -32.1935 -32.1931 -32.1931 -15.8256 -15.8228 -15.8228
     9.4800  12.8905  12.8938  13.9161  14.0802  14.0802  14.0973  14.6284
    14.6284  15.5547  15.6552  15.6552  15.8926  16.0167  16.3847  16.5004
    18.3611  18.3611  18.6009  19.2696

          k =-0.1279 0.3838-0.1279 (  2861 PWs)   bands (ev):

   -78.7330 -70.2295 -63.4646 -41.9946 -41.9937 -41.9936 -39.5512 -36.2962
   -36.2960 -36.2946 -32.1939 -32.1930 -32.1929 -15.8297 -15.8235 -15.8233
    10.0016  13.1065  13.1068  13.6256  13.8509  14.0663  14.1488  14.7355
    14.7849  15.4385  15.4981  15.7719  15.9480  16.0602  16.3932  16.5339
    17.5960  18.0762  18.6218  19.0622

          k =-0.2559 0.5117-0.2559 (  2879 PWs)   bands (ev):

   -78.7330 -70.2295 -63.4647 -41.9955 -41.9938 -41.9937 -39.5510 -36.2966
   -36.2962 -36.2938 -32.1943 -32.1929 -32.1927 -15.8346 -15.8247 -15.8239
    10.8885  13.3493  13.4397  13.4620  13.6989  14.1161  14.2143  14.5899
    14.7699  15.1249  15.2084  15.6558  16.0307  16.1020  16.5109  16.5410
    16.9743  17.8753  18.3222  19.1057

          k = 0.6397-0.3838 0.6397 (  2870 PWs)   bands (ev):

   -78.7330 -70.2295 -63.4647 -41.9960 -41.9938 -41.9937 -39.5509 -36.2966
   -36.2962 -36.2933 -32.1944 -32.1929 -32.1926 -15.8374 -15.8256 -15.8242
    11.9607  12.7212  13.6465  13.7588  13.8131  14.2072  14.3253  14.4908
    14.4916  14.8527  14.9869  15.1070  16.0610  16.1307  16.5377  16.5856
    17.1269  17.8962  17.9786  19.1909

          k = 0.5117-0.2559 0.5117 (  2858 PWs)   bands (ev):

   -78.7330 -70.2294 -63.4647 -41.9959 -41.9937 -41.9937 -39.5509 -36.2964
   -36.2961 -36.2934 -32.1943 -32.1929 -32.1927 -15.8366 -15.8256 -15.8242
    11.5883  13.0695  13.5237  13.8015  13.8407  14.0986  14.2837  14.3612
    14.6382  14.9030  14.9974  15.2655  16.0669  16.1399  16.4933  16.5832
    17.0504  17.7493  18.1640  19.2348

          k = 0.3838-0.1279 0.3838 (  2861 PWs)   bands (ev):

   -78.7330 -70.2295 -63.4647 -41.9952 -41.9937 -41.9937 -39.5511 -36.2962
   -36.2961 -36.2941 -32.1940 -32.1930 -32.1929 -15.8328 -15.8246 -15.8237
    10.5557  13.2596  13.3952  13.6016  13.8072  14.0637  14.2832  14.4767
    14.7110  15.1468  15.2838  15.7714  16.0512  16.1045  16.4085  16.5538
    17.0974  17.7328  18.5850  19.1133

          k = 0.2559 0.0000 0.2559 (  2850 PWs)   bands (ev):

   -78.7330 -70.2295 -63.4646 -41.9944 -41.9936 -41.9936 -39.5513 -36.2959
   -36.2958 -36.2949 -32.1936 -32.1931 -32.1930 -15.8280 -15.8234 -15.8231
     9.7806  13.0024  13.0380  13.8141  13.9289  14.1124  14.2839  14.5191
    14.6450  15.3802  15.5482  15.7223  16.0080  16.0216  16.4086  16.5115
    17.8822  17.9966  18.8162  19.1514

          k = 0.0000 0.5117 0.0000 (  2858 PWs)   bands (ev):

   -78.7330 -70.2295 -63.4646 -41.9949 -41.9938 -41.9938 -39.5511 -36.2964
   -36.2964 -36.2935 -32.1944 -32.1928 -32.1928 -15.8322 -15.8235 -15.8235
    10.3599  13.1820  13.2657  13.2699  13.5771  14.0612  14.0612  15.0599
    15.0599  15.6082  15.6671  15.8525  15.8525  16.0784  16.2855  16.5672
    17.7294  17.7294  18.3887  18.7493

          k =-0.1279 0.6397-0.1279 (  2868 PWs)   bands (ev):

   -78.7330 -70.2295 -63.4647 -41.9956 -41.9938 -41.9938 -39.5509 -36.2968
   -36.2966 -36.2928 -32.1949 -32.1927 -32.1926 -15.8351 -15.8248 -15.8240
    11.0815  12.9699  13.3319  13.3945  13.5533  14.1004  14.1370  15.0838
    15.1150  15.3692  15.6782  15.8451  15.9489  16.1310  16.3769  16.5723
    17.1242  17.5758  18.2563  18.7082

          k = 0.7676-0.2559 0.7676 (  2864 PWs)   bands (ev):

   -78.7330 -70.2295 -63.4647 -41.9963 -41.9939 -41.9937 -39.5507 -36.2969
   -36.2962 -36.2926 -32.1949 -32.1928 -32.1925 -15.8359 -15.8274 -15.8244
    11.9970  12.7298  13.2396  13.5638  13.8349  14.2029  14.3456  14.8430
    14.9411  15.0677  15.3976  15.5326  15.9138  16.1533  16.4641  16.5326
    16.9553  17.7524  17.8820  18.9642

          k = 0.6397-0.1279 0.6397 (  2861 PWs)   bands (ev):

   -78.7330 -70.2294 -63.4647 -41.9964 -41.9938 -41.9936 -39.5507 -36.2967
   -36.2959 -36.2931 -32.1946 -32.1931 -32.1925 -15.8345 -15.8295 -15.8245
    12.1346  12.9071  13.3018  13.5777  13.9593  14.2802  14.4465  14.6071
    14.8347  14.8896  15.1044  15.3348  15.9583  16.1151  16.4774  16.5042
    16.9328  17.5670  18.0342  19.1274

          k = 0.5117 0.0000 0.5117 (  2854 PWs)   bands (ev):

   -78.7330 -70.2294 -63.4647 -41.9960 -41.9937 -41.9936 -39.5509 -36.2964
   -36.2958 -36.2936 -32.1942 -32.1931 -32.1927 -15.8338 -15.8277 -15.8242
    11.3292  13.3300  13.3572  13.6273  13.8041  14.0531  14.2880  14.6243
    14.8699  14.9565  15.1593  15.6281  16.0189  16.1425  16.3510  16.5433
    16.9341  17.3390  18.3634  19.2106

          k = 0.0000 0.7676 0.0000 (  2854 PWs)   bands (ev):

   -78.7330 -70.2295 -63.4647 -41.9959 -41.9939 -41.9939 -39.5507 -36.2969
   -36.2969 -36.2917 -32.1956 -32.1924 -32.1924 -15.8375 -15.8243 -15.8243
    11.6182  12.6700  13.0553  13.3627  13.8162  14.1024  14.1024  15.2222
    15.3143  15.3143  15.7911  16.0783  16.2236  16.2306  16.2306  16.6325
    17.4238  17.4238  17.8622  18.2734

          k = 0.8955-0.1279 0.8955 (  2859 PWs)   bands (ev):

   -78.7330 -70.2294 -63.4647 -41.9964 -41.9939 -41.9939 -39.5506 -36.2970
   -36.2969 -36.2915 -32.1958 -32.1925 -32.1923 -15.8378 -15.8259 -15.8245
    12.3223  12.5536  12.9344  13.2939  14.0435  14.1978  14.1999  14.8445
    15.2809  15.4543  15.6720  15.9306  15.9830  16.3470  16.4323  16.7216
    17.0519  17.4954  17.6681  18.4692

          k = 0.7676 0.0000 0.7676 (  2870 PWs)   bands (ev):

   -78.7330 -70.2295 -63.4647 -41.9966 -41.9939 -41.9937 -39.5506 -36.2971
   -36.2963 -36.2922 -32.1953 -32.1928 -32.1924 -15.8353 -15.8294 -15.8246
    12.4471  12.9393  12.9526  13.2686  14.0477  14.3632  14.4385  14.5666
    15.1593  15.2121  15.3235  15.7323  15.7976  16.2925  16.4082  16.6988
    16.7694  17.4235  17.8679  18.7761

          k = 0.0000-1.0235 0.0000 (  2874 PWs)   bands (ev):

   -78.7330 -70.2295 -63.4647 -41.9964 -41.9940 -41.9940 -39.5505 -36.2972
   -36.2972 -36.2912 -32.1961 -32.1923 -32.1923 -15.8393 -15.8246 -15.8246
    12.4456  12.6882  12.7845  13.0597  14.1269  14.1269  14.2705  14.8020
    15.4009  15.4009  15.9388  16.0250  16.2054  16.2766  16.2766  16.8497
    17.1225  17.7072  17.7072  18.1666

          k =-0.2559 0.5117 0.0000 (  2861 PWs)   bands (ev):

   -78.7330 -70.2295 -63.4647 -41.9953 -41.9937 -41.9937 -39.5510 -36.2964
   -36.2962 -36.2938 -32.1943 -32.1929 -32.1927 -15.8328 -15.8248 -15.8238
    10.6241  13.2665  13.3318  13.4087  13.6258  14.0906  14.1562  14.8431
    14.9362  15.3238  15.4085  15.7966  16.0362  16.1136  16.3224  16.5621
    17.3392  17.4281  18.6156  18.9174

          k = 0.6397-0.3838 0.8955 (  2854 PWs)   bands (ev):

   -78.7330 -70.2294 -63.4647 -41.9960 -41.9938 -41.9936 -39.5508 -36.2966
   -36.2960 -36.2931 -32.1945 -32.1930 -32.1925 -15.8350 -15.8269 -15.8244
    11.5165  13.0649  13.4230  13.4840  13.8201  14.1588  14.2685  14.7502
    14.9104  15.0169  15.2214  15.5194  16.0163  16.1631  16.3712  16.5774
    16.9450  17.5053  18.2302  19.1035

          k = 0.5117-0.2559 0.7676 (  2848 PWs)   bands (ev):

   -78.7330 -70.2294 -63.4647 -41.9964 -41.9938 -41.9936 -39.5508 -36.2967
   -36.2957 -36.2930 -32.1945 -32.1931 -32.1925 -15.8357 -15.8280 -15.8246
    12.3028  12.6047  13.4395  13.5113  14.0639  14.2583  14.4520  14.5545
    14.7669  14.8870  15.0719  15.2052  15.9976  16.1666  16.4010  16.5575
    17.0514  17.7924  17.8763  19.2021

          k = 0.7676-0.2559 1.0235 (  2856 PWs)   bands (ev):

   -78.7330 -70.2294 -63.4647 -41.9962 -41.9939 -41.9937 -39.5507 -36.2970
   -36.2963 -36.2922 -32.1952 -32.1928 -32.1923 -15.8362 -15.8262 -15.8247
    11.8022  12.7683  13.1291  13.4196  13.8790  14.1785  14.2058  15.0128
    15.0652  15.3456  15.6325  15.6896  15.9926  16.2093  16.4084  16.6821
    16.9791  17.3606  18.0062  18.7453

          k = 0.6397-0.1279 0.8955 (  2866 PWs)   bands (ev):

   -78.7330 -70.2294 -63.4647 -41.9966 -41.9939 -41.9936 -39.5506 -36.2971
   -36.2959 -36.2926 -32.1950 -32.1931 -32.1922 -15.8347 -15.8293 -15.8251
    12.4908  12.6725  13.0765  13.3414  14.1431  14.3380  14.4194  14.7393
    14.9668  15.1234  15.2869  15.5209  15.9418  16.2603  16.4428  16.6329
    16.9234  17.5782  17.6624  19.0048

          k = 0.5117 0.0000 0.7676 (  2864 PWs)   bands (ev):

   -78.7330 -70.2294 -63.4647 -41.9966 -41.9939 -41.9936 -39.5507 -36.2970
   -36.2957 -36.2930 -32.1947 -32.1933 -32.1923 -15.8332 -15.8307 -15.8249
    12.1859  12.9660  13.1860  13.3628  14.1498  14.3553  14.3811  14.7259
    14.8568  15.0423  15.2211  15.3324  15.9457  16.1606  16.4311  16.7103
    16.7877  17.4430  17.9587  19.1872

          k =-0.2559-1.0235 0.0000 (  2862 PWs)   bands (ev):

   -78.7330 -70.2294 -63.4647 -41.9966 -41.9940 -41.9938 -39.5505 -36.2973
   -36.2964 -36.2917 -32.1957 -32.1927 -32.1922 -15.8371 -15.8268 -15.8252
    12.5451  12.7694  12.8406  13.1519  14.1567  14.2265  14.3658  14.6967
    15.1873  15.4335  15.6186  15.6341  15.9781  16.3972  16.6043  16.8675
    16.9763  17.2345  17.5333  18.7412

          k =-0.5117-1.0235 0.0000 (  2872 PWs)   bands (ev):

   -78.7330 -70.2295 -63.4647 -41.9968 -41.9940 -41.9936 -39.5506 -36.2974
   -36.2956 -36.2927 -32.1949 -32.1934 -32.1921 -15.8323 -15.8316 -15.8258
    12.7344  12.7925  12.8613  13.2230  14.3967  14.4429  14.4671  14.7571
    14.9312  14.9378  15.1304  15.5684  15.9518  16.4136  16.4557  16.7072
    17.0181  17.3764  17.4859  19.1790

 ------ SPIN DOWN ----------


          k = 0.0000 0.0000 0.0000 (  2837 PWs)   bands (ev):

   -77.1737 -68.7888 -60.3263 -40.4986 -40.4986 -40.4986 -40.0071 -34.8938
   -34.8938 -34.8938 -29.1343 -29.1343 -29.1343 -16.2826 -16.2826 -16.2826
     9.1716  13.8305  13.8305  15.0117  15.0117  15.0117  15.1978  15.1978
    15.1978  16.3785  16.3785  16.3785  17.7972  17.7972  18.7113  18.7113
    19.6865  19.6865  19.6865  19.9944

          k =-0.1279 0.1279-0.1279 (  2824 PWs)   bands (ev):

   -77.1737 -68.7887 -60.3263 -40.5005 -40.4986 -40.4986 -40.0053 -34.8937
   -34.8937 -34.8935 -29.1345 -29.1342 -29.1342 -16.2850 -16.2828 -16.2828
     9.4069  13.9319  13.9319  14.8065  14.9891  14.9891  15.1742  15.2715
    15.2715  16.3258  16.3258  16.4886  17.8254  17.8254  18.6791  18.6791
    19.2359  19.5796  19.5796  19.8788

          k =-0.2559 0.2559-0.2559 (  2860 PWs)   bands (ev):

   -77.1737 -68.7888 -60.3263 -40.5050 -40.4987 -40.4987 -40.0012 -34.8942
   -34.8942 -34.8932 -29.1350 -29.1340 -29.1340 -16.2907 -16.2834 -16.2834
    10.0843  14.2096  14.2096  14.6111  14.7215  15.0234  15.0234  15.3629
    15.3629  16.1560  16.1560  16.6854  17.9203  17.9203  18.3768  18.6229
    18.6229  19.2913  19.2913  19.5942

          k =-0.3838 0.3838-0.3838 (  2869 PWs)   bands (ev):

   -77.1737 -68.7888 -60.3264 -40.5094 -40.4988 -40.4988 -39.9970 -34.8945
   -34.8945 -34.8925 -29.1355 -29.1338 -29.1338 -16.2963 -16.2840 -16.2840
    11.1198  13.6611  14.5755  14.5755  14.8190  15.1605  15.1605  15.3526
    15.3526  15.8891  15.8891  16.2726  18.0831  18.0831  18.3210  18.6101
    18.6101  18.9458  18.9458  19.2696

          k = 0.5117-0.5117 0.5117 (  2884 PWs)   bands (ev):

   -77.1737 -68.7888 -60.3264 -40.5112 -40.4988 -40.4988 -39.9953 -34.8947
   -34.8947 -34.8924 -29.1358 -29.1338 -29.1338 -16.2986 -16.2842 -16.2842
    12.3007  12.4611  14.8023  14.8023  15.2315  15.2686  15.2686  15.2960
    15.2960  15.5993  15.7029  15.7029  18.1985  18.1985  18.6544  18.6544
    18.7403  18.7403  18.9346  19.1028

          k = 0.0000 0.2559 0.0000 (  2826 PWs)   bands (ev):

   -77.1737 -68.7887 -60.3263 -40.5010 -40.4987 -40.4987 -40.0048 -34.8938
   -34.8938 -34.8933 -29.1346 -29.1342 -29.1342 -16.2857 -16.2828 -16.2828
     9.4848  13.9345  13.9855  14.7954  14.8110  14.9537  14.9537  15.5041
    15.5041  16.3623  16.3623  16.4391  17.7638  17.8713  18.5592  18.7650
    19.3120  19.3120  19.5676  19.7468

          k =-0.1279 0.3838-0.1279 (  2861 PWs)   bands (ev):

   -77.1737 -68.7888 -60.3263 -40.5046 -40.4988 -40.4987 -40.0014 -34.8943
   -34.8941 -34.8931 -29.1350 -29.1341 -29.1340 -16.2899 -16.2835 -16.2833
    10.0121  14.0895  14.2212  14.4186  14.6063  14.9843  15.0450  15.5857
    15.7177  16.2287  16.2799  16.6389  17.7781  17.9299  18.4245  18.6058
    18.7793  18.9560  19.3627  19.6145

          k =-0.2559 0.5117-0.2559 (  2879 PWs)   bands (ev):

   -77.1737 -68.7888 -60.3264 -40.5091 -40.4988 -40.4987 -39.9973 -34.8947
   -34.8944 -34.8927 -29.1355 -29.1340 -29.1338 -16.2946 -16.2848 -16.2839
    10.9190  13.8578  14.3000  14.5555  14.6027  15.1016  15.1963  15.4675
    15.7435  16.0047  16.0375  16.5545  17.9320  17.9885  18.1923  18.3692
    18.6645  18.7439  18.9950  19.4706

          k = 0.6397-0.3838 0.6397 (  2870 PWs)   bands (ev):

   -77.1736 -68.7887 -60.3264 -40.5119 -40.4989 -40.4988 -39.9947 -34.8947
   -34.8944 -34.8923 -29.1358 -29.1340 -29.1337 -16.2973 -16.2856 -16.2843
    12.0699  12.8645  14.4511  14.8292  14.8357  15.2681  15.4029  15.4930
    15.5058  15.7586  15.8104  15.9377  18.0564  18.1215  18.3346  18.5325
    18.6196  18.6735  18.9106  19.3181

          k = 0.5117-0.2559 0.5117 (  2858 PWs)   bands (ev):

   -77.1736 -68.7887 -60.3264 -40.5113 -40.4988 -40.4988 -39.9953 -34.8945
   -34.8943 -34.8923 -29.1356 -29.1341 -29.1338 -16.2966 -16.2856 -16.2842
    11.6596  13.2844  14.4608  14.7417  14.7933  15.2382  15.2675  15.3454
    15.6506  15.7662  15.8921  16.1161  18.0523  18.0864  18.2913  18.5172
    18.5672  18.6633  18.7684  19.3954

          k = 0.3838-0.1279 0.3838 (  2861 PWs)   bands (ev):

   -77.1737 -68.7888 -60.3264 -40.5077 -40.4988 -40.4987 -39.9986 -34.8943
   -34.8943 -34.8928 -29.1352 -29.1341 -29.1339 -16.2928 -16.2846 -16.2838
    10.5774  14.1977  14.3213  14.4155  14.5813  15.1000  15.1941  15.2621
    15.6545  16.0032  16.1443  16.6805  17.8952  17.9915  18.1959  18.4441
    18.6458  18.7045  19.0917  19.6621

          k = 0.2559 0.0000 0.2559 (  2850 PWs)   bands (ev):

   -77.1737 -68.7888 -60.3263 -40.5032 -40.4987 -40.4987 -40.0028 -34.8940
   -34.8939 -34.8934 -29.1348 -29.1341 -29.1341 -16.2881 -16.2834 -16.2832
     9.7883  14.0844  14.0855  14.6484  14.7106  15.0376  15.1634  15.2527
    15.5307  16.2054  16.3148  16.6065  17.8114  17.9055  18.5452  18.7202
    18.8936  18.9517  19.5154  19.7456

          k = 0.0000 0.5117 0.0000 (  2858 PWs)   bands (ev):

   -77.1737 -68.7887 -60.3264 -40.5069 -40.4989 -40.4989 -39.9992 -34.8945
   -34.8945 -34.8923 -29.1356 -29.1339 -29.1339 -16.2924 -16.2835 -16.2835
    10.3772  13.9816  14.0100  14.4310  14.4402  14.9965  14.9965  16.1097
    16.1097  16.3834  16.3834  16.6172  17.5837  17.9379  18.2111  18.5584
    18.5584  18.8530  19.1733  19.4189

          k =-0.1279 0.6397-0.1279 (  2868 PWs)   bands (ev):

   -77.1737 -68.7887 -60.3264 -40.5105 -40.4990 -40.4989 -39.9958 -34.8949
   -34.8947 -34.8918 -29.1361 -29.1339 -29.1338 -16.2952 -16.2847 -16.2839
    11.1220  13.6493  13.8589  14.4149  14.7531  15.0752  15.1150  16.1129
    16.1578  16.3761  16.4121  16.7330  17.5313  17.9205  18.1170  18.1329
    18.3036  18.8168  18.9641  19.3685

          k = 0.7676-0.2559 0.7676 (  2864 PWs)   bands (ev):

   -77.1736 -68.7887 -60.3264 -40.5133 -40.4990 -40.4988 -39.9933 -34.8950
   -34.8945 -34.8917 -29.1362 -29.1341 -29.1337 -16.2959 -16.2874 -16.2843
    12.1124  13.1702  13.8729  14.4167  15.0236  15.2248  15.3890  15.8411
    15.9070  16.1413  16.1555  16.3658  17.6848  17.8919  18.0097  18.3589
    18.5418  18.5550  18.9135  19.3921

          k = 0.6397-0.1279 0.6397 (  2861 PWs)   bands (ev):

   -77.1736 -68.7887 -60.3264 -40.5137 -40.4989 -40.4987 -39.9931 -34.8948
   -34.8942 -34.8920 -29.1358 -29.1345 -29.1337 -16.2944 -16.2894 -16.2844
    12.3400  13.1710  13.9899  14.3762  15.0731  15.3202  15.5084  15.6657
[...]
    17.7264  18.2137  18.3377  19.1622

          k = 0.7757 0.0000 0.7757 (  2586 PWs)   bands (ev):

   -78.0949 -69.5665 -62.8109 -41.3628 -41.3594 -41.3591 -38.8812 -35.6386
   -35.6377 -35.6325 -31.5451 -31.5421 -31.5416 -15.1791 -15.1721 -15.1667
    12.9672  13.4622  13.5122  13.8269  14.6116  14.9345  15.0195  15.1509
    15.7689  15.8225  15.9348  16.3834  16.4481  16.9645  17.0699  17.3916
    17.4560  18.1531  18.5413  19.4736

          k = 0.0000-1.0342 0.0000 (  2586 PWs)   bands (ev):

   -78.0949 -69.5665 -62.8109 -41.3624 -41.3595 -41.3595 -38.8811 -35.6389
   -35.6389 -35.6309 -31.5462 -31.5414 -31.5414 -15.1837 -15.1666 -15.1666
    12.9419  13.2072  13.3532  13.6125  14.6907  14.6907  14.8416  15.3896
    16.0274  16.0274  16.5921  16.6970  16.8848  16.9230  16.9230  17.5482
    17.8465  18.3864  18.3864  18.8588

          k =-0.2586 0.5171 0.0000 (  2585 PWs)   bands (ev):

   -78.0949 -69.5666 -62.8108 -41.3611 -41.3592 -41.3591 -38.8817 -35.6380
   -35.6378 -35.6343 -31.5439 -31.5423 -31.5421 -15.1764 -15.1669 -15.1659
    11.1611  13.7898  13.8602  13.9380  14.1778  14.6526  14.7231  15.4496
    15.5402  15.9374  16.0319  16.4416  16.7003  16.7798  17.0029  17.2494
    17.9956  18.0944  19.3090  19.6316

          k = 0.6464-0.3878 0.9049 (  2583 PWs)   bands (ev):

   -78.0949 -69.5665 -62.8109 -41.3621 -41.3593 -41.3591 -38.8815 -35.6384
   -35.6374 -35.6337 -31.5441 -31.5424 -31.5418 -15.1788 -15.1694 -15.1665
    12.0662  13.6011  13.9540  14.0336  14.3732  14.7256  14.8398  15.3517
    15.5072  15.6211  15.8334  16.1444  16.6819  16.8342  17.0459  17.2599
    17.6196  18.1842  18.9177  19.8136

          k = 0.5171-0.2586 0.7757 (  2580 PWs)   bands (ev):

   -78.0949 -69.5665 -62.8109 -41.3624 -41.3593 -41.3591 -38.8814 -35.6385
   -35.6372 -35.6336 -31.5442 -31.5425 -31.5417 -15.1795 -15.1708 -15.1668
    12.8537  13.1544  13.9744  14.0594  14.6340  14.8348  15.0332  15.1402
    15.3616  15.4797  15.6712  15.8120  16.6625  16.8387  17.0741  17.2367
    17.7540  18.4956  18.5529  19.9063

          k = 0.7757-0.2586 1.0342 (  2596 PWs)   bands (ev):

   -78.0949 -69.5666 -62.8109 -41.3622 -41.3594 -41.3592 -38.8813 -35.6388
   -35.6380 -35.6327 -31.5450 -31.5421 -31.5415 -15.1802 -15.1685 -15.1668
    12.3561  13.2814  13.6600  13.9666  14.4296  14.7456  14.7738  15.6174
    15.6687  15.9767  16.2663  16.3285  16.6553  16.8771  17.0875  17.3731
    17.6279  18.0425  18.7105  19.4456

          k = 0.6464-0.1293 0.9049 (  2587 PWs)   bands (ev):

   -78.0949 -69.5665 -62.8109 -41.3628 -41.3594 -41.3591 -38.8812 -35.6388
   -35.6372 -35.6329 -31.5448 -31.5425 -31.5414 -15.1783 -15.1721 -15.1673
    13.0326  13.2046  13.6054  13.8920  14.7135  14.9144  14.9998  15.3356
    15.5664  15.7358  15.8951  16.1487  16.6026  16.9245  17.1162  17.3126
    17.6196  18.2924  18.3603  19.7065

          k = 0.5171 0.0000 0.7757 (  2578 PWs)   bands (ev):

   -78.0949 -69.5665 -62.8109 -41.3627 -41.3594 -41.3590 -38.8813 -35.6386
   -35.6368 -35.6335 -31.5444 -31.5427 -31.5415 -15.1766 -15.1737 -15.1671
    12.7291  13.5045  13.7163  13.9118  14.7222  14.9385  14.9577  15.3261
    15.4430  15.6567  15.8269  15.9440  16.6069  16.8280  17.1067  17.3916
    17.4687  18.1562  18.6459  19.8896

          k =-0.2586-1.0342 0.0000 (  2580 PWs)   bands (ev):

   -78.0949 -69.5665 -62.8109 -41.3627 -41.3595 -41.3592 -38.8811 -35.6390
   -35.6379 -35.6318 -31.5456 -31.5420 -31.5413 -15.1812 -15.1691 -15.1673
    13.0507  13.2920  13.4027  13.7060  14.7254  14.7966  14.9392  15.2853
    15.7986  16.0516  16.2623  16.2687  16.6405  17.0656  17.2800  17.5571
    17.6364  17.9606  18.2451  19.4342

          k =-0.5171-1.0342 0.0000 (  2580 PWs)   bands (ev):

   -78.0949 -69.5665 -62.8109 -41.3630 -41.3595 -41.3590 -38.8812 -35.6390
   -35.6367 -35.6331 -31.5447 -31.5429 -31.5412 -15.1756 -15.1747 -15.1680
    13.2645  13.3271  13.3906  13.7713  14.9787  15.0242  15.0587  15.3662
    15.5257  15.5453  15.7251  16.1862  16.6138  17.0626  17.1322  17.3820
    17.7246  18.1032  18.2157  19.8801

 ------ SPIN DOWN ----------


          k = 0.0000 0.0000 0.0000 (  2637 PWs)   bands (ev):

   -76.5825 -68.2270 -59.7405 -39.9095 -39.9095 -39.9095 -39.2811 -34.3343
   -34.3343 -34.3343 -28.5510 -28.5510 -28.5510 -15.5677 -15.5677 -15.5677
     9.6910  14.2942  14.2942  15.5616  15.5616  15.5616  15.7548  15.7548
    15.7548  16.9420  16.9420  16.9420  18.4242  18.4242  19.3361  19.3361
    20.3961  20.3961  20.3961  20.7246

          k =-0.1293 0.1293-0.1293 (  2616 PWs)   bands (ev):

   -76.5825 -68.2269 -59.7406 -39.9113 -39.9095 -39.9095 -39.2795 -34.3344
   -34.3344 -34.3337 -28.5512 -28.5509 -28.5509 -15.5704 -15.5679 -15.5679
     9.9327  14.4015  14.4015  15.3401  15.5327  15.5327  15.7480  15.8336
    15.8336  16.8870  16.8870  17.0593  18.4546  18.4546  19.3023  19.3023
    19.9251  20.2854  20.2854  20.6027

          k =-0.2586 0.2586-0.2586 (  2596 PWs)   bands (ev):

   -76.5825 -68.2268 -59.7406 -39.9156 -39.9096 -39.9096 -39.2755 -34.3345
   -34.3345 -34.3327 -28.5518 -28.5507 -28.5507 -15.5770 -15.5686 -15.5686
    10.6269  14.6962  14.6962  15.1488  15.2956  15.5620  15.5620  15.9249
    15.9249  16.7103  16.7103  17.2693  18.5554  18.5554  19.0296  19.2444
    19.2444  19.9826  19.9826  20.3085

          k =-0.3878 0.3878-0.3878 (  2590 PWs)   bands (ev):

   -76.5825 -68.2267 -59.7407 -39.9200 -39.9097 -39.9097 -39.2716 -34.3347
   -34.3347 -34.3319 -28.5524 -28.5504 -28.5504 -15.5834 -15.5693 -15.5693
    11.6838  14.2531  15.0884  15.0884  15.3482  15.7028  15.7028  15.8995
    15.8995  16.4315  16.4315  16.8447  18.7263  18.7263  18.9718  19.2341
    19.2341  19.6128  19.6128  19.9817

          k = 0.5171-0.5171 0.5171 (  2536 PWs)   bands (ev):

   -76.5825 -68.2264 -59.7407 -39.9218 -39.9097 -39.9097 -39.2700 -34.3346
   -34.3346 -34.3312 -28.5526 -28.5503 -28.5503 -15.5861 -15.5696 -15.5696
    12.8817  13.0456  15.3402  15.3402  15.7870  15.7941  15.7941  15.8490
    15.8490  16.1363  16.2319  16.2319  18.8473  18.8473  19.2867  19.2867
    19.3850  19.3850  19.5980  19.8181

          k = 0.0000 0.2586 0.0000 (  2621 PWs)   bands (ev):

   -76.5825 -68.2269 -59.7406 -39.9118 -39.9096 -39.9096 -39.2789 -34.3345
   -34.3345 -34.3335 -28.5514 -28.5509 -28.5509 -15.5714 -15.5679 -15.5679
    10.0126  14.4093  14.4543  15.3393  15.3522  15.4912  15.4912  16.0840
    16.0840  16.9257  16.9257  17.0074  18.3910  18.5025  19.1769  19.3916
    20.0052  20.0052  20.2755  20.4628

          k =-0.1293 0.3878-0.1293 (  2604 PWs)   bands (ev):

   -76.5825 -68.2268 -59.7406 -39.9153 -39.9097 -39.9096 -39.2757 -34.3347
   -34.3346 -34.3326 -28.5519 -28.5507 -28.5507 -15.5761 -15.5687 -15.5684
    10.5531  14.5820  14.7004  14.9523  15.1385  15.5184  15.5858  16.1742
    16.3062  16.7863  16.8414  17.2191  18.4082  18.5648  19.0371  19.2677
    19.4059  19.6337  20.0658  20.3237

          k =-0.2586 0.5171-0.2586 (  2576 PWs)   bands (ev):

   -76.5825 -68.2266 -59.7407 -39.9198 -39.9097 -39.9096 -39.2718 -34.3348
   -34.3346 -34.3318 -28.5524 -28.5507 -28.5504 -15.5815 -15.5701 -15.5691
    11.4787  14.4159  14.8177  15.0547  15.1271  15.6380  15.7385  16.0397
    16.3184  16.5517  16.5921  17.1357  18.5680  18.6278  18.8355  18.9917
    19.3241  19.3671  19.6812  20.1819

          k = 0.6464-0.3878 0.6464 (  2580 PWs)   bands (ev):

   -76.5825 -68.2266 -59.7407 -39.9225 -39.9098 -39.9096 -39.2694 -34.3349
   -34.3346 -34.3315 -28.5526 -28.5507 -28.5503 -15.5846 -15.5711 -15.5695
    12.6452  13.4411  14.9780  15.3618  15.3707  15.8142  15.9578  16.0429
    16.0517  16.2969  16.3449  16.4948  18.7003  18.7633  18.9708  19.1670
    19.2690  19.3202  19.5783  20.0282

          k = 0.5171-0.2586 0.5171 (  2585 PWs)   bands (ev):

   -76.5825 -68.2267 -59.7407 -39.9219 -39.9097 -39.9097 -39.2699 -34.3349
   -34.3346 -34.3317 -28.5525 -28.5507 -28.5503 -15.5838 -15.5710 -15.5695
    12.2293  13.8641  14.9804  15.2763  15.3285  15.7684  15.8149  15.8987
    16.2089  16.2991  16.4402  16.6790  18.6997  18.7275  18.9275  19.1528
    19.1961  19.3238  19.4324  20.1023

          k = 0.3878-0.1293 0.3878 (  2592 PWs)   bands (ev):

   -76.5825 -68.2267 -59.7407 -39.9183 -39.9097 -39.9096 -39.2731 -34.3346
   -34.3345 -34.3323 -28.5520 -28.5508 -28.5505 -15.5795 -15.5699 -15.5691
    11.1303  14.7411  14.8325  14.9210  15.1095  15.6424  15.7364  15.8238
    16.2336  16.5495  16.7019  17.2652  18.5316  18.6288  18.8394  19.0672
    19.3047  19.3258  19.7839  20.3446

          k = 0.2586 0.0000 0.2586 (  2605 PWs)   bands (ev):

   -76.5825 -68.2268 -59.7406 -39.9139 -39.9096 -39.9095 -39.2771 -34.3345
   -34.3344 -34.3331 -28.5515 -28.5508 -28.5508 -15.5740 -15.5685 -15.5684
    10.3238  14.5610  14.5678  15.1839  15.2443  15.5842  15.7111  15.8252
    16.1128  16.7611  16.8771  17.1844  18.4417  18.5388  19.1634  19.3445
    19.5681  19.6287  20.2254  20.4588

          k = 0.0000 0.5171 0.0000 (  2610 PWs)   bands (ev):

   -76.5825 -68.2268 -59.7407 -39.9175 -39.9098 -39.9098 -39.2736 -34.3350
   -34.3350 -34.3318 -28.5526 -28.5505 -28.5505 -15.5791 -15.5686 -15.5686
    10.9266  14.4929  14.5239  14.9143  14.9610  15.5275  15.5275  16.7087
    16.7087  16.9653  16.9653  17.1956  18.2050  18.5745  18.8142  19.2190
    19.2190  19.4807  19.8711  20.1176

          k =-0.1293 0.6464-0.1293 (  2590 PWs)   bands (ev):

   -76.5825 -68.2267 -59.7407 -39.9210 -39.9099 -39.9098 -39.2704 -34.3352
   -34.3350 -34.3310 -28.5532 -28.5505 -28.5503 -15.5823 -15.5700 -15.5690
    11.6853  14.1643  14.3735  14.9445  15.2505  15.6071  15.6487  16.6853
    16.7178  16.9863  17.0305  17.3211  18.1442  18.5607  18.7430  18.7715
    18.9403  19.4431  19.6534  20.0692

          k = 0.7757-0.2586 0.7757 (  2587 PWs)   bands (ev):

   -76.5825 -68.2267 -59.7407 -39.9239 -39.9099 -39.9097 -39.2680 -34.3352
   -34.3347 -34.3309 -28.5533 -28.5507 -28.5502 -15.5829 -15.5730 -15.5695
    12.6851  13.7086  14.3884  14.9665  15.5438  15.7605  15.9336  16.3838
    16.4777  16.7316  16.7342  16.9460  18.2957  18.5342  18.6481  18.9980
    19.1878  19.1948  19.5825  20.0992

          k = 0.6464-0.1293 0.6464 (  2582 PWs)   bands (ev):

   -76.5825 -68.2266 -59.7407 -39.9243 -39.9098 -39.9096 -39.2678 -34.3351
   -34.3343 -34.3314 -28.5528 -28.5511 -28.5502 -15.5812 -15.5754 -15.5697
    12.8995  13.7423  14.5187  14.9186  15.6167  15.8571  16.0562  16.2327
    16.2935  16.3698  16.6075  16.6901  18.4334  18.6154  18.6814  18.8486
    19.0790  19.3714  19.5424  20.1773

          k = 0.5171 0.0000 0.5171 (  2582 PWs)   bands (ev):

   -76.5825 -68.2266 -59.7407 -39.9220 -39.9097 -39.9096 -39.2699 -34.3348
   -34.3343 -34.3319 -28.5522 -28.5512 -28.5503 -15.5806 -15.5734 -15.5695
    11.9588  14.4523  14.6178  14.9903  15.3170  15.7373  15.7968  16.0550
    16.3552  16.3996  16.6407  17.0959  18.4384  18.6307  18.6424  19.0003
    19.1087  19.1643  19.4330  20.3067

          k = 0.0000 0.7757 0.0000 (  2586 PWs)   bands (ev):

   -76.5825 -68.2267 -59.7407 -39.9232 -39.9100 -39.9100 -39.2683 -34.3354
   -34.3354 -34.3300 -28.5542 -28.5502 -28.5502 -15.5849 -15.5692 -15.5692
    12.2600  13.8533  14.0793  14.7662  15.5989  15.6214  15.6214  16.8585
    16.8585  17.4293  17.6167  17.7393  17.7393  18.5386  18.5438  18.5438
    18.6181  19.4210  19.5357  19.8134

          k = 0.9049-0.1293 0.9049 (  2580 PWs)   bands (ev):

   -76.5825 -68.2266 -59.7408 -39.9251 -39.9100 -39.9099 -39.2666 -34.3355
   -34.3353 -34.3297 -28.5544 -28.5503 -28.5501 -15.5852 -15.5710 -15.5695
    13.0495  13.6832  13.9419  14.5483  15.6877  15.7542  15.9130  16.6014
    16.8024  17.2161  17.5049  17.6800  17.7276  18.4073  18.4817  18.7173
    18.9910  19.3063  19.4526  19.8109

          k = 0.7757 0.0000 0.7757 (  2586 PWs)   bands (ev):

   -76.5825 -68.2266 -59.7408 -39.9256 -39.9100 -39.9097 -39.2664 -34.3354
   -34.3347 -34.3305 -28.5538 -28.5508 -28.5501 -15.5821 -15.5751 -15.5697
    13.3871  13.8359  13.9391  14.5223  15.7678  15.9760  16.0590  16.1757
    16.6846  16.7397  16.8861  17.1232  18.0607  18.4645  18.4799  18.9963
    19.0531  19.3119  19.7168  19.9833

          k = 0.0000-1.0342 0.0000 (  2586 PWs)   bands (ev):

   -76.5825 -68.2266 -59.7408 -39.9255 -39.9101 -39.9101 -39.2660 -34.3357
   -34.3357 -34.3292 -28.5550 -28.5500 -28.5500 -15.5868 -15.5695 -15.5695
    13.4963  13.5317  13.7068  14.2974  15.6681  15.6681  16.1430  16.8853
    16.8853  17.0663  17.5445  18.2378  18.2378  18.4017  18.4017  18.4786
    18.5803  19.3440  19.3683  19.6594

          k =-0.2586 0.5171 0.0000 (  2585 PWs)   bands (ev):

   -76.5825 -68.2267 -59.7407 -39.9189 -39.9097 -39.9097 -39.2725 -34.3348
   -34.3346 -34.3319 -28.5523 -28.5508 -28.5504 -15.5796 -15.5700 -15.5691
    11.2031  14.5708  14.6148  14.9708  15.0321  15.6152  15.6268  16.3248
    16.5117  16.6808  16.7964  17.3105  18.3939  18.5874  18.8345  18.9957
    19.0510  19.4184  19.7610  20.3265

          k = 0.6464-0.3878 0.9049 (  2583 PWs)   bands (ev):

   -76.5825 -68.2266 -59.7407 -39.9225 -39.9098 -39.9096 -39.2693 -34.3351
   -34.3344 -34.3315 -28.5526 -28.5510 -28.5502 -15.5819 -15.5725 -15.5697
    12.1574  14.0945  14.5818  15.0196  15.4034  15.7571  15.8305  16.2318
    16.3894  16.5252  16.6413  17.0086  18.4799  18.5298  18.7145  18.9834
    19.1092  19.2246  19.5153  20.2751

          k = 0.5171-0.2586 0.7757 (  2580 PWs)   bands (ev):

   -76.5825 -68.2266 -59.7407 -39.9240 -39.9098 -39.9096 -39.2680 -34.3352
   -34.3342 -34.3314 -28.5527 -28.5512 -28.5501 -15.5825 -15.5738 -15.5699
    13.1193  13.3241  14.6364  15.0115  15.6717  15.8900  16.0483  16.1395
    16.2394  16.3883  16.4954  16.6139  18.4745  18.7193  18.7557  18.8490
    19.2052  19.3321  19.7287  20.1641

          k = 0.7757-0.2586 1.0342 (  2596 PWs)   bands (ev):

   -76.5825 -68.2267 -59.7407 -39.9238 -39.9100 -39.9098 -39.2679 -34.3355
   -34.3349 -34.3306 -28.5536 -28.5507 -28.5500 -15.5834 -15.5714 -15.5698
    12.4669  13.9263  14.1548  14.8349  15.6015  15.7329  15.7500  16.6033
    16.6463  16.9500  17.1662  17.3097  18.0342  18.3530  18.6845  18.8099
    18.9862  19.2905  19.5469  20.0377

          k = 0.6464-0.1293 0.9049 (  2587 PWs)   bands (ev):

   -76.5825 -68.2266 -59.7408 -39.9254 -39.9100 -39.9096 -39.2666 -34.3356
   -34.3343 -34.3308 -28.5534 -28.5513 -28.5499 -15.5814 -15.5751 -15.5703
    13.3087  13.6455  14.1387  14.6539  15.8430  15.9279  16.0542  16.3221
    16.5138  16.6485  16.7077  17.0135  18.2327  18.3258  18.6925  18.9160
    19.1292  19.3581  19.6505  20.1026

          k = 0.5171 0.0000 0.7757 (  2578 PWs)   bands (ev):

   -76.5825 -68.2266 -59.7408 -39.9249 -39.9099 -39.9096 -39.2672 -34.3354
   -34.3340 -34.3313 -28.5528 -28.5515 -28.5500 -15.5797 -15.5767 -15.5702
    12.9526  14.0040  14.1903  14.7616  15.7828  15.9540  16.0527  16.2835
    16.3419  16.4645  16.6584  16.8096  18.2823  18.6065  18.6949  18.7427
    19.0555  19.4209  19.4855  20.2375

          k =-0.2586-1.0342 0.0000 (  2580 PWs)   bands (ev):

   -76.5825 -68.2266 -59.7408 -39.9258 -39.9101 -39.9098 -39.2660 -34.3357
   -34.3348 -34.3299 -28.5543 -28.5507 -28.5499 -15.5843 -15.5720 -15.5703
    13.6103  13.6139  13.7920  14.3779  15.7968  15.8115  16.0788  16.4734
    16.6834  16.9621  17.2810  17.6629  17.7588  18.2431  18.6516  18.8390
    19.2115  19.2969  19.4476  19.8540

          k =-0.5171-1.0342 0.0000 (  2580 PWs)   bands (ev):

   -76.5825 -68.2266 -59.7408 -39.9261 -39.9100 -39.9095 -39.2660 -34.3357
   -34.3338 -34.3309 -28.5532 -28.5518 -28.5497 -15.5786 -15.5777 -15.5710
    13.6992  13.7398  13.8807  14.4682  16.0192  16.1727  16.2011  16.2771
    16.4215  16.5135  16.5404  16.9231  18.2286  18.5340  18.5422  18.7586
    19.4817  19.4966  19.6003  20.0633

     the Fermi energy is    17.4937 ev

!    total energy              =    -958.27139673 Ry
     estimated scf accuracy    <          4.6E-11 Ry
     smearing contrib. (-TS)   =       0.00507585 Ry
     internal energy E=F+TS    =    -958.27647258 Ry

     The total energy is F=E-TS. E is the sum of the following terms:
     one-electron contribution =    -404.95095660 Ry
     hartree contribution      =     237.36924214 Ry
     xc contribution           =    -112.19334555 Ry
     ewald contribution        =    -602.35229218 Ry
     one-center paw contrib.   =     -76.14912039 Ry

     total magnetization       =     4.20 Bohr mag/cell
     absolute magnetization    =     5.66 Bohr mag/cell

     convergence has been achieved in  28 iterations

     negative rho (up, down):  7.802E-04 1.259E-04

     Forces acting on atoms (cartesian axes, Ry/au):

     atom    1 type  2   force =     0.00000000    0.00000000    0.00000000
     atom    2 type  1   force =     0.00000000    0.00000000    0.00000000
     atom    3 type  3   force =     0.00000000    0.00000000   -0.00000000
     atom    4 type  4   force =    -0.00000000   -0.00000000    0.00000000

     Total force =     0.000000     Total SCF correction =     0.000000


     Computing stress (Cartesian axis) and pressure


     negative rho (up, down):  7.802E-04 1.259E-04
          total   stress  (Ry/bohr**3)                   (kbar)     P=        3.52
   0.00002390  -0.00000000   0.00000000            3.52       -0.00        0.00
   0.00000000   0.00002390  -0.00000000            0.00        3.52       -0.00
   0.00000000  -0.00000000   0.00002390            0.00       -0.00        3.52


     Writing all to output data dir /home/washingmachine/Galaxy/CoFeMnTi-1/tmp/CoFeMnTi_config1.save/

     init_run     :     23.73s CPU     24.51s WALL (       2 calls)
     electrons    :   1893.04s CPU   2014.09s WALL (       6 calls)
     update_pot   :     29.43s CPU     29.73s WALL (       4 calls)
     forces       :     30.82s CPU     32.93s WALL (       6 calls)
     stress       :     75.74s CPU     81.62s WALL (       6 calls)

     Called by init_run:
     wfcinit      :      8.55s CPU      8.67s WALL (       2 calls)
     potinit      :      3.99s CPU      4.05s WALL (       2 calls)
     hinit0       :     10.47s CPU     10.56s WALL (       2 calls)

     Called by electrons:
     c_bands      :   1448.67s CPU   1464.08s WALL (     156 calls)
     sum_band     :    318.75s CPU    378.12s WALL (     156 calls)
     v_of_rho     :     27.14s CPU     29.14s WALL (     162 calls)
     newd         :     52.08s CPU     97.54s WALL (     162 calls)
     PAW_pot      :     46.60s CPU     47.00s WALL (     166 calls)
     mix_rho      :      3.30s CPU      3.34s WALL (     156 calls)

     Called by c_bands:
     init_us_2    :     24.72s CPU     25.11s WALL (   19140 calls)
     init_us_2:cp :     24.67s CPU     25.08s WALL (   19140 calls)
     cegterg      :   1363.60s CPU   1378.09s WALL (    9048 calls)

     Called by *egterg:
     cdiaghg      :     49.54s CPU     50.08s WALL (   41562 calls)
     h_psi        :   1074.07s CPU   1085.55s WALL (   41910 calls)
     s_psi        :     44.38s CPU     44.91s WALL (   41910 calls)
     g_psi        :      8.93s CPU      9.03s WALL (   32746 calls)

     Called by h_psi:
     h_psi:calbec :     49.32s CPU     49.85s WALL (   41910 calls)
     vloc_psi     :    974.64s CPU    985.03s WALL (   41910 calls)
     add_vuspsi   :     45.69s CPU     46.19s WALL (   41910 calls)

     General routines
     calbec       :     69.29s CPU     70.07s WALL (   52930 calls)
     fft          :     12.75s CPU     12.88s WALL (    4282 calls)
     ffts         :      0.52s CPU      0.53s WALL (     636 calls)
     fftw         :   1020.73s CPU   1031.91s WALL ( 2096362 calls)
     interpolate  :      1.43s CPU      1.45s WALL (     324 calls)


     PWSCF        :  34m16.37s CPU  36m27.72s WALL


   This run was terminated on:   0:49:58   1Sep2025            

=------------------------------------------------------------------------------=
   JOB DONE.
=------------------------------------------------------------------------------=
