
     Program BANDS v.7.0 starts on  1Sep2025 at  2:31:22 

     This program is part of the open-source Quantum ESPRESSO suite
     for quantum simulation of materials; please cite
         "P. Giannozzi et al., J. Phys.:Condens. Matter 21 395502 (2009);
         "P. Giannozzi et al., J. Phys.:Condens. Matter 29 465901 (2017);
         "P. Giannozzi et al., J. Chem. Phys. 152 154105 (2020);
          URL http://www.quantum-espresso.org", 
     in publications or presentations arising from this work. More details at
     http://www.quantum-espresso.org/quote

     Serial version
     369 MiB available memory on the printing compute node when the environment starts


     Reading xml data from directory:

     /home/washingmachine/Galaxy/CoFeMnTi-1/tmp/CoFeMnTi_scf.save/
     file Fe.UPF: wavefunction(s)  3D renormalized

     IMPORTANT: XC functional enforced from input :
     Exchange-correlation= PBE
                           (   1   4   3   4   0   0   0)
     Any further DFT definition will be discarded
     Please, verify this is what you really want


     G-vector sticks info
     --------------------
     sticks:   dense  smooth     PW     G-vecs:    dense   smooth      PW
     Sum        1981    1003    283                58383    20539    3143

     Using Slab Decomposition


     Check: negative core charge=   -0.000046

     negative rho (up, down):  7.758E-04 1.332E-04
     Reading collected, re-writing distributed wavefunctions
     high-symmetry point:  0.0000 0.0000 0.0000   x coordinate   0.0000
     high-symmetry point: -1.0000 0.0000 0.0000   x coordinate   1.0000
     high-symmetry point: -0.5000 0.5000 0.5000   x coordinate   1.8660
     high-symmetry point:  0.0000 0.0000 0.0000   x coordinate   2.7321

     Plottable bands (eV) written to file CoFeMnTi_fixed.bands.gnu
     Bands written to file CoFeMnTi_fixed.bands

     BANDS        :      2.42s CPU      3.45s WALL


   This run was terminated on:   2:31:26   1Sep2025            

=------------------------------------------------------------------------------=
   JOB DONE.
=------------------------------------------------------------------------------=
