
     Program PWSCF v.7.0 starts on  1Sep2025 at  1: 7: 5 

     This program is part of the open-source Quantum ESPRESSO suite
     for quantum simulation of materials; please cite
         "P. Giannozzi et al., J. Phys.:Condens. Matter 21 395502 (2009);
         "P. Giannozzi et al., J. Phys.:Condens. Matter 29 465901 (2017);
         "P. Giannozzi et al., J. Chem. Phys. 152 154105 (2020);
          URL http://www.quantum-espresso.org", 
     in publications or presentations arising from this work. More details at
     http://www.quantum-espresso.org/quote

     Serial version
     2616 MiB available memory on the printing compute node when the environment starts

     Waiting for input...
     Reading input from standard input

     Current dimensions of program PWSCF are:
     Max number of different atomic species (ntypx) = 10
     Max number of k-points (npk) =  40000
     Max angular momentum in pseudopotentials (lmaxx) =  4
     Message from routine input:
     WARNING: "startingwfc" set to atomic+random may spoil restart
     file Fe.UPF: wavefunction(s)  3D renormalized
     [opt_tetra]  Optimized tetrahedron method is used.

     G-vector sticks info
     --------------------
     sticks:   dense  smooth     PW     G-vecs:    dense   smooth      PW
     Sum        1981    1003    301                58383    20539    3479

     Using Slab Decomposition



     bravais-lattice index     =            2
     lattice parameter (alat)  =      10.9580  a.u.
     unit-cell volume          =     328.9530 (a.u.)^3
     number of atoms/cell      =            4
     number of atomic types    =            4
     number of electrons       =        60.00
     number of Kohn-Sham states=           36
     kinetic-energy cutoff     =      60.0000  Ry
     charge density cutoff     =     480.0000  Ry
     Exchange-correlation=  SLA  PW   PBX  PBC
                           (   1   4   3   4   0   0   0)

     celldm(1)=  10.958000  celldm(2)=   0.000000  celldm(3)=   0.000000
     celldm(4)=   0.000000  celldm(5)=   0.000000  celldm(6)=   0.000000

     crystal axes: (cart. coord. in units of alat)
               a(1) = (  -0.500000   0.000000   0.500000 )  
               a(2) = (   0.000000   0.500000   0.500000 )  
               a(3) = (  -0.500000   0.500000   0.000000 )  

     reciprocal axes: (cart. coord. in units 2 pi/alat)
               b(1) = ( -1.000000 -1.000000  1.000000 )  
               b(2) = (  1.000000  1.000000  1.000000 )  
               b(3) = ( -1.000000  1.000000 -1.000000 )  


     PseudoPot. # 1 for Co read from file:
     /home/washingmachine/Galaxy/CoFeMnTi-1/Pseudo/Co.UPF
     MD5 check sum: 5f91765df6ddd3222702df6e7b74a16d
     Pseudo is Ultrasoft + core correction, Zval = 17.0
     Generated by new atomic code, or converted to UPF format
     Using radial grid of  863 points,  6 beta functions with: 
                l(1) =   0
                l(2) =   0
                l(3) =   1
                l(4) =   1
                l(5) =   2
                l(6) =   2
     Q(r) pseudized with  8 coefficients,  rinner =    1.200   1.200   1.200
                                                       1.200   1.200

     PseudoPot. # 2 for Fe read from file:
     /home/washingmachine/Galaxy/CoFeMnTi-1/Pseudo/Fe.UPF
     MD5 check sum: e86618425769142926afa95317d90200
     Pseudo is Projector augmented-wave + core cor, Zval = 16.0
     Generated using "atomic" code by A. Dal Corso  v.5.0.99 svn rev. 10869
     Shape of augmentation charge: PSQ
     Using radial grid of 1191 points,  6 beta functions with: 
                l(1) =   0
                l(2) =   0
                l(3) =   1
                l(4) =   1
                l(5) =   2
                l(6) =   2
     Q(r) pseudized with 0 coefficients 


     PseudoPot. # 3 for Mn read from file:
     /home/washingmachine/Galaxy/CoFeMnTi-1/Pseudo/Mn.UPF
     MD5 check sum: 82ef2b46521d7a7d9e736dc3972e4928
     Pseudo is Ultrasoft + core correction, Zval = 15.0
     Generated by new atomic code, or converted to UPF format
     Using radial grid of  859 points,  6 beta functions with: 
                l(1) =   0
                l(2) =   0
                l(3) =   1
                l(4) =   1
                l(5) =   2
                l(6) =   2
     Q(r) pseudized with  8 coefficients,  rinner =    0.950   0.950   0.950
                                                       0.950   0.950

     PseudoPot. # 4 for Ti read from file:
     /home/washingmachine/Galaxy/CoFeMnTi-1/Pseudo/Ti.UPF
     MD5 check sum: 88a00a6731bd790ddea75d31a80cb452
     Pseudo is Ultrasoft + core correction, Zval = 12.0
     Generated by new atomic code, or converted to UPF format
     Using radial grid of  851 points,  6 beta functions with: 
                l(1) =   0
                l(2) =   0
                l(3) =   1
                l(4) =   1
                l(5) =   2
                l(6) =   2
     Q(r) pseudized with  6 coefficients,  rinner =    1.000   1.000   1.000
                                                       1.000   1.000

     atomic species   valence    mass     pseudopotential
        Co            17.00    58.93300     Co( 1.00)
        Fe            16.00    55.84500     Fe( 1.00)
        Mn            15.00    54.93800     Mn( 1.00)
        Ti            12.00    47.86700     Ti( 1.00)

     Starting magnetic structure 
     atomic species   magnetization
        Co           1.000
        Fe           1.000
        Mn           1.000
        Ti           0.100

     24 Sym. Ops. (no inversion) found



   Cartesian axes

     site n.     atom                  positions (alat units)
         1           Fe  tau(   1) = (   0.0000000   0.0000000   0.0000000  )
         2           Co  tau(   2) = (  -0.5000000   0.5000000   0.5000000  )
         3           Mn  tau(   3) = (  -0.2500000   0.2500000   0.2500000  )
         4           Ti  tau(   4) = (  -0.7500000   0.7500000   0.7500000  )

     number of k points=   256 (tetrahedron method)

     Number of k-points >= 100: set verbosity='high' to print them.

     Dense  grid:    58383 G-vectors     FFT dimensions: (  60,  60,  60)

     Smooth grid:    20539 G-vectors     FFT dimensions: (  40,  40,  40)

     Estimated max dynamical RAM per process >     215.40 MB

     Atomic positions and unit cell read from directory:
     /home/washingmachine/Galaxy/CoFeMnTi-1/tmp/CoFeMnTi_scf.save/


     Check: negative core charge=   -0.000046
     Generating pointlists ...
     new r_m :   0.1786 (alat units)  1.9573 (a.u.) for type    1
     new r_m :   0.1786 (alat units)  1.9573 (a.u.) for type    2
     new r_m :   0.1786 (alat units)  1.9573 (a.u.) for type    3
     new r_m :   0.1786 (alat units)  1.9573 (a.u.) for type    4

     The potential is recalculated from file :
     /home/washingmachine/Galaxy/CoFeMnTi-1/tmp/CoFeMnTi_scf.save/charge-density


     negative rho (up, down):  7.758E-04 1.332E-04
     Starting wfcs are   49 randomized atomic wfcs

     Band Structure Calculation
     Davidson diagonalization with overlap
     c_bands:  1 eigenvalues not converged
     c_bands:  1 eigenvalues not converged
     c_bands:  1 eigenvalues not converged
     c_bands:  1 eigenvalues not converged
     c_bands:  1 eigenvalues not converged

     ethr =  1.67E-11,  avg # of iterations = 60.0

     total cpu time spent up to now is     1176.4 secs

     End of band structure calculation

     Number of k-points >= 100: set verbosity='high' to print the bands.

     the Fermi energy is    17.5822 ev
     (compare with:    17.5258 eV, computed in scf)

     Writing all to output data dir /home/washingmachine/Galaxy/CoFeMnTi-1/tmp/CoFeMnTi_scf.save/

     init_run     :      1.75s CPU      2.04s WALL (       1 calls)
     electrons    :   1164.30s CPU   1172.88s WALL (       1 calls)

     Called by init_run:
     wfcinit      :      0.00s CPU      0.00s WALL (       1 calls)
     potinit      :      0.41s CPU      0.44s WALL (       1 calls)
     hinit0       :      0.89s CPU      0.91s WALL (       1 calls)

     Called by electrons:
     c_bands      :   1144.61s CPU   1153.09s WALL (       1 calls)
     v_of_rho     :      0.16s CPU      0.18s WALL (       1 calls)
     newd         :      0.28s CPU      0.51s WALL (       1 calls)
     PAW_pot      :      0.24s CPU      0.24s WALL (       1 calls)

     Called by c_bands:
     init_us_2    :      0.46s CPU      0.57s WALL (     512 calls)
     init_us_2:cp :      0.46s CPU      0.57s WALL (     512 calls)
     cegterg      :   1106.70s CPU   1114.59s WALL (    1770 calls)

     Called by *egterg:
     cdiaghg      :     43.25s CPU     43.55s WALL (   31233 calls)
     h_psi        :    857.06s CPU    863.29s WALL (   33003 calls)
     s_psi        :     31.96s CPU     32.22s WALL (   33003 calls)
     g_psi        :      9.40s CPU      9.47s WALL (   30721 calls)

     Called by h_psi:
     h_psi:calbec :     35.44s CPU     35.70s WALL (   33003 calls)
     vloc_psi     :    785.46s CPU    791.17s WALL (   33003 calls)
     add_vuspsi   :     33.03s CPU     33.29s WALL (   33003 calls)

     General routines
     calbec       :     35.37s CPU     35.64s WALL (   33003 calls)
     fft          :      0.06s CPU      0.06s WALL (      23 calls)
     ffts         :      0.00s CPU      0.00s WALL (       2 calls)
     fftw         :    702.38s CPU    707.65s WALL ( 1576176 calls)
     interpolate  :      0.01s CPU      0.01s WALL (       2 calls)
     davcio       :      0.17s CPU      0.51s WALL (    1024 calls)


     PWSCF        :  19m27.69s CPU  19m37.17s WALL


   This run was terminated on:   1:26:43   1Sep2025            

=------------------------------------------------------------------------------=
   JOB DONE.
=------------------------------------------------------------------------------=
Note: The following floating-point exceptions are signalling: IEEE_INVALID_FLAG IEEE_DENORMAL
