
     Program PROJWFC v.7.0 starts on  1Sep2025 at  2:11:14 

     This program is part of the open-source Quantum ESPRESSO suite
     for quantum simulation of materials; please cite
         "P. Giannozzi et al., J. Phys.:Condens. Matter 21 395502 (2009);
         "P. Giannozzi et al., J. Phys.:Condens. Matter 29 465901 (2017);
         "P. Giannozzi et al., J. Chem. Phys. 152 154105 (2020);
          URL http://www.quantum-espresso.org", 
     in publications or presentations arising from this work. More details at
     http://www.quantum-espresso.org/quote

     Serial version
     1624 MiB available memory on the printing compute node when the environment starts


     Reading xml data from directory:

     /home/washingmachine/Galaxy/CoFeMnTi-1/tmp/CoFeMnTi_scf.save/
     file Fe.UPF: wavefunction(s)  3D renormalized

     IMPORTANT: XC functional enforced from input :
     Exchange-correlation= PBE
                           (   1   4   3   4   0   0   0)
     Any further DFT definition will be discarded
     Please, verify this is what you really want


     G-vector sticks info
     --------------------
     sticks:   dense  smooth     PW     G-vecs:    dense   smooth      PW
     Sum        1981    1003    295                58383    20539    3287

     Using Slab Decomposition


     Check: negative core charge=   -0.000046

     negative rho (up, down):  7.758E-04 1.332E-04

     Gaussian broadening (read from input): ngauss,degauss=   0    0.020000


     Calling projwave .... 

  Problem Sizes 
  natomwfc =           49
  nbnd     =           36
  nkstot   =          244
  npwx     =         2649
  nkb      =           72


     Atomic states used for projection
     (read from pseudopotential files):

     state #   1: atom   1 (Fe ), wfc  1 (l=0 m= 1)
     state #   2: atom   1 (Fe ), wfc  2 (l=0 m= 1)
     state #   3: atom   1 (Fe ), wfc  3 (l=1 m= 1)
     state #   4: atom   1 (Fe ), wfc  3 (l=1 m= 2)
     state #   5: atom   1 (Fe ), wfc  3 (l=1 m= 3)
     state #   6: atom   1 (Fe ), wfc  4 (l=1 m= 1)
     state #   7: atom   1 (Fe ), wfc  4 (l=1 m= 2)
     state #   8: atom   1 (Fe ), wfc  4 (l=1 m= 3)
     state #   9: atom   1 (Fe ), wfc  5 (l=2 m= 1)
     state #  10: atom   1 (Fe ), wfc  5 (l=2 m= 2)
     state #  11: atom   1 (Fe ), wfc  5 (l=2 m= 3)
     state #  12: atom   1 (Fe ), wfc  5 (l=2 m= 4)
     state #  13: atom   1 (Fe ), wfc  5 (l=2 m= 5)
     state #  14: atom   2 (Co ), wfc  1 (l=0 m= 1)
     state #  15: atom   2 (Co ), wfc  2 (l=1 m= 1)
     state #  16: atom   2 (Co ), wfc  2 (l=1 m= 2)
     state #  17: atom   2 (Co ), wfc  2 (l=1 m= 3)
     state #  18: atom   2 (Co ), wfc  3 (l=2 m= 1)
     state #  19: atom   2 (Co ), wfc  3 (l=2 m= 2)
     state #  20: atom   2 (Co ), wfc  3 (l=2 m= 3)
     state #  21: atom   2 (Co ), wfc  3 (l=2 m= 4)
     state #  22: atom   2 (Co ), wfc  3 (l=2 m= 5)
     state #  23: atom   2 (Co ), wfc  4 (l=0 m= 1)
     state #  24: atom   2 (Co ), wfc  5 (l=1 m= 1)
     state #  25: atom   2 (Co ), wfc  5 (l=1 m= 2)
     state #  26: atom   2 (Co ), wfc  5 (l=1 m= 3)
     state #  27: atom   3 (Mn ), wfc  1 (l=0 m= 1)
     state #  28: atom   3 (Mn ), wfc  2 (l=1 m= 1)
     state #  29: atom   3 (Mn ), wfc  2 (l=1 m= 2)
     state #  30: atom   3 (Mn ), wfc  2 (l=1 m= 3)
     state #  31: atom   3 (Mn ), wfc  3 (l=0 m= 1)
     state #  32: atom   3 (Mn ), wfc  4 (l=2 m= 1)
     state #  33: atom   3 (Mn ), wfc  4 (l=2 m= 2)
     state #  34: atom   3 (Mn ), wfc  4 (l=2 m= 3)
     state #  35: atom   3 (Mn ), wfc  4 (l=2 m= 4)
     state #  36: atom   3 (Mn ), wfc  4 (l=2 m= 5)
     state #  37: atom   3 (Mn ), wfc  5 (l=1 m= 1)
     state #  38: atom   3 (Mn ), wfc  5 (l=1 m= 2)
     state #  39: atom   3 (Mn ), wfc  5 (l=1 m= 3)
     state #  40: atom   4 (Ti ), wfc  1 (l=0 m= 1)
     state #  41: atom   4 (Ti ), wfc  2 (l=1 m= 1)
     state #  42: atom   4 (Ti ), wfc  2 (l=1 m= 2)
     state #  43: atom   4 (Ti ), wfc  2 (l=1 m= 3)
     state #  44: atom   4 (Ti ), wfc  3 (l=0 m= 1)
     state #  45: atom   4 (Ti ), wfc  4 (l=2 m= 1)
     state #  46: atom   4 (Ti ), wfc  4 (l=2 m= 2)
     state #  47: atom   4 (Ti ), wfc  4 (l=2 m= 3)
     state #  48: atom   4 (Ti ), wfc  4 (l=2 m= 4)
     state #  49: atom   4 (Ti ), wfc  4 (l=2 m= 5)

 k =   0.0000000000  0.0000000000  0.0000000000
==== e(   1) =   -78.05973 eV ==== 
     psi = 0.968*[#  14]+0.012*[#  44]+0.011*[#  31]+0.005*[#   2]+0.004*[#  23]
          
    |psi|^2 = 1.000
==== e(   2) =   -69.52739 eV ==== 
     psi = 0.957*[#   1]+0.020*[#  44]+0.019*[#  31]+0.002*[#   2]+0.002*[#  23]
          
    |psi|^2 = 1.000
==== e(   3) =   -62.77694 eV ==== 
     psi = 0.961*[#  27]+0.021*[#   2]+0.008*[#  23]+0.007*[#  44]+0.003*[#  31]
          
    |psi|^2 = 1.000
==== e(   4) =   -41.32379 eV ==== 
     psi = 0.332*[#  15]+0.332*[#  16]+0.332*[#  17]
    |psi|^2 = 1.000
==== e(   5) =   -41.32379 eV ==== 
     psi = 0.332*[#  15]+0.332*[#  16]+0.332*[#  17]
    |psi|^2 = 1.000
==== e(   6) =   -41.32379 eV ==== 
     psi = 0.332*[#  15]+0.332*[#  16]+0.332*[#  17]
    |psi|^2 = 1.000
==== e(   7) =   -38.84667 eV ==== 
     psi = 0.934*[#  40]+0.034*[#   2]+0.015*[#  23]+0.012*[#  31]+0.005*[#  44]
          
    |psi|^2 = 1.000
==== e(   8) =   -35.59796 eV ==== 
     psi = 0.330*[#   3]+0.330*[#   4]+0.330*[#   5]
    |psi|^2 = 1.000
==== e(   9) =   -35.59796 eV ==== 
     psi = 0.330*[#   3]+0.330*[#   4]+0.330*[#   5]
    |psi|^2 = 1.000
==== e(  10) =   -35.59796 eV ==== 
     psi = 0.330*[#   3]+0.330*[#   4]+0.330*[#   5]
    |psi|^2 = 1.000
==== e(  11) =   -31.50885 eV ==== 
     psi = 0.332*[#  28]+0.332*[#  29]+0.332*[#  30]
    |psi|^2 = 1.000
==== e(  12) =   -31.50885 eV ==== 
     psi = 0.332*[#  28]+0.332*[#  29]+0.332*[#  30]
    |psi|^2 = 1.000
==== e(  13) =   -31.50885 eV ==== 
     psi = 0.332*[#  28]+0.332*[#  29]+0.332*[#  30]
    |psi|^2 = 1.000
==== e(  14) =   -15.12932 eV ==== 
     psi = 0.329*[#  41]+0.329*[#  42]+0.329*[#  43]+0.001*[#  37]+0.001*[#  38]
          +0.001*[#  39]+0.001*[#  24]+0.001*[#  25]+0.001*[#  26]
    |psi|^2 = 1.000
==== e(  15) =   -15.12932 eV ==== 
     psi = 0.329*[#  41]+0.329*[#  42]+0.329*[#  43]+0.001*[#  37]+0.001*[#  38]
          +0.001*[#  39]+0.001*[#  24]+0.001*[#  25]+0.001*[#  26]
    |psi|^2 = 1.000
==== e(  16) =   -15.12932 eV ==== 
     psi = 0.329*[#  41]+0.329*[#  42]+0.329*[#  43]+0.001*[#  37]+0.001*[#  38]
          +0.001*[#  39]+0.001*[#  24]+0.001*[#  25]+0.001*[#  26]
    |psi|^2 = 1.000
==== e(  17) =     9.70232 eV ==== 
     psi = 0.266*[#   2]+0.256*[#  31]+0.213*[#  44]+0.184*[#  23]+0.033*[#  40]
          +0.018*[#   1]+0.016*[#  27]+0.014*[#  14]
    |psi|^2 = 1.000
==== e(  18) =    13.27801 eV ==== 
     psi = 0.156*[#  18]+0.156*[#  21]+0.151*[#  32]+0.151*[#  35]+0.122*[#   9]
          +0.122*[#  12]+0.065*[#  45]+0.065*[#  48]
    |psi|^2 = 0.988
==== e(  19) =    13.27801 eV ==== 
     psi = 0.156*[#  18]+0.156*[#  21]+0.151*[#  32]+0.151*[#  35]+0.122*[#   9]
          +0.122*[#  12]+0.065*[#  45]+0.065*[#  48]
    |psi|^2 = 0.988
==== e(  20) =    14.79133 eV ==== 
     psi = 0.200*[#  33]+0.200*[#  34]+0.200*[#  36]+0.062*[#  19]+0.062*[#  20]
          +0.062*[#  22]+0.025*[#  46]+0.025*[#  47]+0.025*[#  49]+0.023*[#  24]
          +0.023*[#  25]+0.023*[#  26]+0.017*[#   6]+0.017*[#   7]+0.017*[#   8]
          +0.004*[#  37]+0.004*[#  38]+0.004*[#  39]+0.002*[#  10]+0.002*[#  11]
          +0.002*[#  13]
    |psi|^2 = 1.000
==== e(  21) =    14.79133 eV ==== 
     psi = 0.200*[#  33]+0.200*[#  34]+0.200*[#  36]+0.062*[#  19]+0.062*[#  20]
          +0.062*[#  22]+0.025*[#  46]+0.025*[#  47]+0.025*[#  49]+0.023*[#  24]
          +0.023*[#  25]+0.023*[#  26]+0.017*[#   6]+0.017*[#   7]+0.017*[#   8]
          +0.004*[#  37]+0.004*[#  38]+0.004*[#  39]+0.002*[#  10]+0.002*[#  11]
          +0.002*[#  13]
    |psi|^2 = 1.000
==== e(  22) =    14.79133 eV ==== 
     psi = 0.200*[#  33]+0.200*[#  34]+0.200*[#  36]+0.062*[#  19]+0.062*[#  20]
          +0.062*[#  22]+0.025*[#  46]+0.025*[#  47]+0.025*[#  49]+0.023*[#  24]
          +0.023*[#  25]+0.023*[#  26]+0.017*[#   6]+0.017*[#   7]+0.017*[#   8]
          +0.004*[#  37]+0.004*[#  38]+0.004*[#  39]+0.002*[#  10]+0.002*[#  11]
          +0.002*[#  13]
    |psi|^2 = 1.000
==== e(  23) =    14.94391 eV ==== 
     psi = 0.157*[#  19]+0.157*[#  20]+0.157*[#  22]+0.088*[#  10]+0.088*[#  11]
          +0.088*[#  13]+0.037*[#  33]+0.037*[#  34]+0.037*[#  36]+0.026*[#  37]
          +0.026*[#  38]+0.026*[#  39]+0.011*[#  46]+0.011*[#  47]+0.011*[#  49]
          +0.008*[#  24]+0.008*[#  25]+0.008*[#  26]+0.003*[#   6]+0.003*[#   7]
          +0.003*[#   8]+0.002*[#  41]+0.002*[#  42]+0.002*[#  43]
    |psi|^2 = 0.998
==== e(  24) =    14.94391 eV ==== 
     psi = 0.157*[#  19]+0.157*[#  20]+0.157*[#  22]+0.088*[#  10]+0.088*[#  11]
          +0.088*[#  13]+0.037*[#  33]+0.037*[#  34]+0.037*[#  36]+0.026*[#  37]
          +0.026*[#  38]+0.026*[#  39]+0.011*[#  46]+0.011*[#  47]+0.011*[#  49]
          +0.008*[#  24]+0.008*[#  25]+0.008*[#  26]+0.003*[#   6]+0.003*[#   7]
          +0.003*[#   8]+0.002*[#  41]+0.002*[#  42]+0.002*[#  43]
    |psi|^2 = 0.998
==== e(  25) =    14.94391 eV ==== 
     psi = 0.157*[#  19]+0.157*[#  20]+0.157*[#  22]+0.088*[#  10]+0.088*[#  11]
          +0.088*[#  13]+0.037*[#  33]+0.037*[#  34]+0.037*[#  36]+0.026*[#  37]
          +0.026*[#  38]+0.026*[#  39]+0.011*[#  46]+0.011*[#  47]+0.011*[#  49]
          +0.008*[#  24]+0.008*[#  25]+0.008*[#  26]+0.003*[#   6]+0.003*[#   7]
          +0.003*[#   8]+0.002*[#  41]+0.002*[#  42]+0.002*[#  43]
    |psi|^2 = 0.998
==== e(  26) =    16.27240 eV ==== 
     psi = 0.185*[#  10]+0.185*[#  11]+0.185*[#  13]+0.071*[#  19]+0.071*[#  20]
          +0.071*[#  22]+0.061*[#  46]+0.061*[#  47]+0.061*[#  49]+0.007*[#  24]
          +0.007*[#  25]+0.007*[#  26]+0.005*[#   6]+0.005*[#   7]+0.005*[#   8]
          +0.002*[#  37]+0.002*[#  38]+0.002*[#  39]+0.001*[#  33]+0.001*[#  34]
          +0.001*[#  36]
    |psi|^2 = 0.999
==== e(  27) =    16.27240 eV ==== 
     psi = 0.185*[#  10]+0.185*[#  11]+0.185*[#  13]+0.071*[#  19]+0.071*[#  20]
          +0.071*[#  22]+0.061*[#  46]+0.061*[#  47]+0.061*[#  49]+0.007*[#  24]
          +0.007*[#  25]+0.007*[#  26]+0.005*[#   6]+0.005*[#   7]+0.005*[#   8]
          +0.002*[#  37]+0.002*[#  38]+0.002*[#  39]+0.001*[#  33]+0.001*[#  34]
          +0.001*[#  36]
    |psi|^2 = 0.999
==== e(  28) =    16.27240 eV ==== 
     psi = 0.185*[#  10]+0.185*[#  11]+0.185*[#  13]+0.071*[#  19]+0.071*[#  20]
          +0.071*[#  22]+0.061*[#  46]+0.061*[#  47]+0.061*[#  49]+0.007*[#  24]
          +0.007*[#  25]+0.007*[#  26]+0.005*[#   6]+0.005*[#   7]+0.005*[#   8]
          +0.002*[#  37]+0.002*[#  38]+0.002*[#  39]+0.001*[#  33]+0.001*[#  34]
          +0.001*[#  36]
    |psi|^2 = 0.999
==== e(  29) =    16.65639 eV ==== 
     psi = 0.315*[#  18]+0.315*[#  21]+0.160*[#  32]+0.160*[#  35]+0.021*[#   9]
          +0.021*[#  12]+0.003*[#  45]+0.003*[#  48]
    |psi|^2 = 1.000
==== e(  30) =    16.65639 eV ==== 
     psi = 0.315*[#  18]+0.315*[#  21]+0.160*[#  32]+0.160*[#  35]+0.021*[#   9]
          +0.021*[#  12]+0.003*[#  45]+0.003*[#  48]
    |psi|^2 = 1.000
==== e(  31) =    17.16794 eV ==== 
     psi = 0.333*[#   9]+0.333*[#  12]+0.151*[#  32]+0.151*[#  35]+0.016*[#  18]
          +0.016*[#  21]
    |psi|^2 = 1.000
==== e(  32) =    17.16794 eV ==== 
     psi = 0.333*[#   9]+0.333*[#  12]+0.151*[#  32]+0.151*[#  35]+0.016*[#  18]
          +0.016*[#  21]
    |psi|^2 = 1.000
==== e(  33) =    19.43645 eV ==== 
     psi = 0.159*[#  46]+0.159*[#  47]+0.159*[#  49]+0.082*[#  33]+0.082*[#  34]
          +0.082*[#  36]+0.037*[#  10]+0.037*[#  11]+0.037*[#  13]+0.027*[#  19]
          +0.027*[#  20]+0.027*[#  22]+0.017*[#  24]+0.017*[#  25]+0.017*[#  26]
          +0.011*[#   6]+0.011*[#   7]+0.011*[#   8]
    |psi|^2 = 0.999
==== e(  34) =    19.43645 eV ==== 
     psi = 0.159*[#  46]+0.159*[#  47]+0.159*[#  49]+0.082*[#  33]+0.082*[#  34]
          +0.082*[#  36]+0.037*[#  10]+0.037*[#  11]+0.037*[#  13]+0.027*[#  19]
          +0.027*[#  20]+0.027*[#  22]+0.017*[#  24]+0.017*[#  25]+0.017*[#  26]
          +0.011*[#   6]+0.011*[#   7]+0.011*[#   8]
    |psi|^2 = 0.999
==== e(  35) =    19.43645 eV ==== 
     psi = 0.159*[#  46]+0.159*[#  47]+0.159*[#  49]+0.082*[#  33]+0.082*[#  34]
          +0.082*[#  36]+0.037*[#  10]+0.037*[#  11]+0.037*[#  13]+0.027*[#  19]
          +0.027*[#  20]+0.027*[#  22]+0.017*[#  24]+0.017*[#  25]+0.017*[#  26]
          +0.011*[#   6]+0.011*[#   7]+0.011*[#   8]
    |psi|^2 = 0.999
==== e(  36) =    20.27618 eV ==== 
     psi = 0.420*[#  45]+0.420*[#  48]+0.037*[#  32]+0.037*[#  35]+0.023*[#   9]
          +0.023*[#  12]+0.012*[#  18]+0.012*[#  21]
    |psi|^2 = 0.985

 k =  -0.0500000000  0.0000000000  0.0000000000
==== e(   1) =   -78.05973 eV ==== 
     psi = 0.967*[#  14]+0.012*[#  44]+0.011*[#  31]+0.005*[#   2]+0.004*[#  23]
          
    |psi|^2 = 1.000
==== e(   2) =   -69.52739 eV ==== 
     psi = 0.956*[#   1]+0.020*[#  44]+0.019*[#  31]+0.002*[#   2]+0.002*[#  23]
          
    |psi|^2 = 1.000
==== e(   3) =   -62.77695 eV ==== 
     psi = 0.960*[#  27]+0.020*[#   2]+0.008*[#  23]+0.006*[#  44]+0.004*[#  31]
          
    |psi|^2 = 1.000
==== e(   4) =   -41.32381 eV ==== 
     psi = 0.332*[#  15]+0.332*[#  16]+0.332*[#  17]
    |psi|^2 = 1.000
==== e(   5) =   -41.32379 eV ==== 
     psi = 0.332*[#  15]+0.332*[#  16]+0.332*[#  17]
    |psi|^2 = 1.000
==== e(   6) =   -41.32379 eV ==== 
     psi = 0.332*[#  15]+0.332*[#  16]+0.332*[#  17]
    |psi|^2 = 1.000
==== e(   7) =   -38.84667 eV ==== 
     psi = 0.933*[#  40]+0.033*[#   2]+0.014*[#  23]+0.012*[#  31]+0.005*[#  44]
          
    |psi|^2 = 1.000
==== e(   8) =   -35.59797 eV ==== 
     psi = 0.330*[#   3]+0.330*[#   4]+0.330*[#   5]
    |psi|^2 = 1.000
==== e(   9) =   -35.59797 eV ==== 
     psi = 0.330*[#   3]+0.330*[#   4]+0.330*[#   5]
    |psi|^2 = 1.000
==== e(  10) =   -35.59792 eV ==== 
     psi = 0.330*[#   3]+0.330*[#   4]+0.330*[#   5]
    |psi|^2 = 1.000
==== e(  11) =   -31.50886 eV ==== 
     psi = 0.332*[#  28]+0.332*[#  29]+0.332*[#  30]
    |psi|^2 = 1.000
==== e(  12) =   -31.50884 eV ==== 
     psi = 0.332*[#  28]+0.332*[#  29]+0.332*[#  30]
    |psi|^2 = 1.000
==== e(  13) =   -31.50884 eV ==== 
     psi = 0.332*[#  28]+0.332*[#  29]+0.332*[#  30]
    |psi|^2 = 1.000
==== e(  14) =   -15.12948 eV ==== 
     psi = 0.329*[#  41]+0.329*[#  42]+0.329*[#  43]+0.001*[#  37]+0.001*[#  38]
          +0.001*[#  39]+0.001*[#  24]+0.001*[#  25]+0.001*[#  26]
    |psi|^2 = 1.000
==== e(  15) =   -15.12933 eV ==== 
     psi = 0.329*[#  41]+0.329*[#  42]+0.329*[#  43]+0.001*[#  37]+0.001*[#  38]
          +0.001*[#  39]+0.001*[#  24]+0.001*[#  25]+0.001*[#  26]
    |psi|^2 = 1.000
==== e(  16) =   -15.12933 eV ==== 
     psi = 0.329*[#  41]+0.329*[#  42]+0.329*[#  43]+0.001*[#  37]+0.001*[#  38]
          +0.001*[#  39]+0.001*[#  24]+0.001*[#  25]+0.001*[#  26]
    |psi|^2 = 1.000
==== e(  17) =     9.71529 eV ==== 
     psi = 0.263*[#   2]+0.254*[#  31]+0.211*[#  44]+0.183*[#  23]+0.033*[#  40]
          +0.018*[#   1]+0.016*[#  27]+0.014*[#  14]+0.001*[#   6]+0.001*[#   7]
          +0.001*[#   8]
    |psi|^2 = 1.000
==== e(  18) =    13.28360 eV ==== 
     psi = 0.156*[#  18]+0.156*[#  21]+0.151*[#  32]+0.151*[#  35]+0.122*[#   9]
          +0.122*[#  12]+0.065*[#  45]+0.065*[#  48]
    |psi|^2 = 0.988
==== e(  19) =    13.28414 eV ==== 
     psi = 0.156*[#  18]+0.156*[#  21]+0.151*[#  32]+0.151*[#  35]+0.122*[#   9]
          +0.122*[#  12]+0.065*[#  45]+0.065*[#  48]
    |psi|^2 = 0.988
==== e(  20) =    14.77686 eV ==== 
     psi = 0.183*[#  33]+0.183*[#  34]+0.183*[#  36]+0.072*[#  19]+0.072*[#  20]
          +0.072*[#  22]+0.024*[#  46]+0.024*[#  47]+0.024*[#  49]+0.020*[#  24]
          +0.020*[#  25]+0.020*[#  26]+0.015*[#   6]+0.015*[#   7]+0.015*[#   8]
          +0.012*[#  10]+0.012*[#  11]+0.012*[#  13]+0.006*[#  37]+0.006*[#  38]
          +0.006*[#  39]
    |psi|^2 = 0.999
==== e(  21) =    14.77686 eV ==== 
     psi = 0.183*[#  33]+0.183*[#  34]+0.183*[#  36]+0.072*[#  19]+0.072*[#  20]
          +0.072*[#  22]+0.024*[#  46]+0.024*[#  47]+0.024*[#  49]+0.020*[#  24]
          +0.020*[#  25]+0.020*[#  26]+0.015*[#   6]+0.015*[#   7]+0.015*[#   8]
          +0.012*[#  10]+0.012*[#  11]+0.012*[#  13]+0.006*[#  37]+0.006*[#  38]
          +0.006*[#  39]
    |psi|^2 = 0.999
==== e(  22) =    14.77981 eV ==== 
     psi = 0.201*[#  33]+0.201*[#  34]+0.201*[#  36]+0.058*[#  19]+0.058*[#  20]
          +0.058*[#  22]+0.026*[#  46]+0.026*[#  47]+0.026*[#  49]+0.023*[#  24]
          +0.023*[#  25]+0.023*[#  26]+0.017*[#   6]+0.017*[#   7]+0.017*[#   8]
          +0.004*[#  37]+0.004*[#  38]+0.004*[#  39]+0.002*[#  10]+0.002*[#  11]
          +0.002*[#  13]
    |psi|^2 = 1.000
==== e(  23) =    14.93303 eV ==== 
     psi = 0.160*[#  19]+0.160*[#  20]+0.160*[#  22]+0.088*[#  10]+0.088*[#  11]
          +0.088*[#  13]+0.033*[#  33]+0.033*[#  34]+0.033*[#  36]+0.027*[#  37]
          +0.027*[#  38]+0.027*[#  39]+0.011*[#  46]+0.011*[#  47]+0.011*[#  49]
          +0.007*[#  24]+0.007*[#  25]+0.007*[#  26]+0.003*[#   6]+0.003*[#   7]
          +0.003*[#   8]+0.002*[#  41]+0.002*[#  42]+0.002*[#  43]
    |psi|^2 = 0.998
==== e(  24) =    14.96671 eV ==== 
     psi = 0.147*[#  19]+0.147*[#  20]+0.147*[#  22]+0.079*[#  10]+0.079*[#  11]
          +0.079*[#  13]+0.053*[#  33]+0.053*[#  34]+0.053*[#  36]+0.025*[#  37]
          +0.025*[#  38]+0.025*[#  39]+0.012*[#  46]+0.012*[#  47]+0.012*[#  49]
          +0.010*[#  24]+0.010*[#  25]+0.010*[#  26]+0.005*[#   6]+0.005*[#   7]
          +0.005*[#   8]+0.002*[#  41]+0.002*[#  42]+0.002*[#  43]
    |psi|^2 = 0.998
==== e(  25) =    14.96671 eV ==== 
     psi = 0.147*[#  19]+0.147*[#  20]+0.147*[#  22]+0.079*[#  10]+0.079*[#  11]
          +0.079*[#  13]+0.053*[#  33]+0.053*[#  34]+0.053*[#  36]+0.025*[#  37]
          +0.025*[#  38]+0.025*[#  39]+0.012*[#  46]+0.012*[#  47]+0.012*[#  49]
          +0.010*[#  24]+0.010*[#  25]+0.010*[#  26]+0.005*[#   6]+0.005*[#   7]
          +0.005*[#   8]+0.002*[#  41]+0.002*[#  42]+0.002*[#  43]
    |psi|^2 = 0.998
==== e(  26) =    16.26728 eV ==== 
     psi = 0.183*[#  10]+0.183*[#  11]+0.183*[#  13]+0.071*[#  19]+0.071*[#  20]
          +0.071*[#  22]+0.060*[#  46]+0.060*[#  47]+0.060*[#  49]+0.006*[#  24]
          +0.006*[#  25]+0.006*[#  26]+0.005*[#   6]+0.005*[#   7]+0.005*[#   8]
          +0.003*[#  18]+0.003*[#  21]+0.002*[#  37]+0.002*[#  38]+0.002*[#  39]
          +0.002*[#   9]+0.002*[#  12]+0.002*[#  33]+0.002*[#  34]+0.002*[#  36]
          
    |psi|^2 = 0.999
==== e(  27) =    16.27352 eV ==== 
     psi = 0.185*[#  10]+0.185*[#  11]+0.185*[#  13]+0.071*[#  19]+0.071*[#  20]
          +0.071*[#  22]+0.061*[#  46]+0.061*[#  47]+0.061*[#  49]+0.007*[#  24]
          +0.007*[#  25]+0.007*[#  26]+0.005*[#   6]+0.005*[#   7]+0.005*[#   8]
          +0.002*[#  37]+0.002*[#  38]+0.002*[#  39]+0.001*[#  33]+0.001*[#  34]
          +0.001*[#  36]
    |psi|^2 = 0.999
==== e(  28) =    16.27352 eV ==== 
     psi = 0.185*[#  10]+0.185*[#  11]+0.185*[#  13]+0.071*[#  19]+0.071*[#  20]
          +0.071*[#  22]+0.061*[#  46]+0.061*[#  47]+0.061*[#  49]+0.007*[#  24]
          +0.007*[#  25]+0.007*[#  26]+0.005*[#   6]+0.005*[#   7]+0.005*[#   8]
          +0.002*[#  37]+0.002*[#  38]+0.002*[#  39]+0.001*[#  33]+0.001*[#  34]
          +0.001*[#  36]
    |psi|^2 = 0.999
==== e(  29) =    16.65414 eV ==== 
     psi = 0.314*[#  18]+0.314*[#  21]+0.162*[#  32]+0.162*[#  35]+0.021*[#   9]
          +0.021*[#  12]+0.004*[#  45]+0.004*[#  48]
    |psi|^2 = 1.000
==== e(  30) =    16.66068 eV ==== 
     psi = 0.310*[#  18]+0.310*[#  21]+0.162*[#  32]+0.162*[#  35]+0.020*[#   9]
          +0.020*[#  12]+0.003*[#  45]+0.003*[#  48]+0.001*[#  19]+0.001*[#  20]
          +0.001*[#  22]
    |psi|^2 = 1.000
==== e(  31) =    17.16553 eV ==== 
     psi = 0.334*[#   9]+0.334*[#  12]+0.149*[#  32]+0.149*[#  35]+0.017*[#  18]
          +0.017*[#  21]
    |psi|^2 = 1.000
==== e(  32) =    17.17143 eV ==== 
     psi = 0.331*[#   9]+0.331*[#  12]+0.149*[#  32]+0.149*[#  35]+0.016*[#  18]
          +0.016*[#  21]+0.001*[#  10]+0.001*[#  11]+0.001*[#  13]
    |psi|^2 = 1.000
==== e(  33) =    19.42124 eV ==== 
     psi = 0.158*[#  46]+0.158*[#  47]+0.158*[#  49]+0.081*[#  33]+0.081*[#  34]
          +0.081*[#  36]+0.037*[#  10]+0.037*[#  11]+0.037*[#  13]+0.027*[#  19]
          +0.027*[#  20]+0.027*[#  22]+0.017*[#  24]+0.017*[#  25]+0.017*[#  26]
          +0.011*[#   6]+0.011*[#   7]+0.011*[#   8]
    |psi|^2 = 0.999
==== e(  34) =    19.42124 eV ==== 
     psi = 0.158*[#  46]+0.158*[#  47]+0.158*[#  49]+0.081*[#  33]+0.081*[#  34]
          +0.081*[#  36]+0.037*[#  10]+0.037*[#  11]+0.037*[#  13]+0.027*[#  19]
          +0.027*[#  20]+0.027*[#  22]+0.017*[#  24]+0.017*[#  25]+0.017*[#  26]
          +0.011*[#   6]+0.011*[#   7]+0.011*[#   8]
    |psi|^2 = 0.999
==== e(  35) =    19.43297 eV ==== 
     psi = 0.159*[#  46]+0.159*[#  47]+0.159*[#  49]+0.081*[#  33]+0.081*[#  34]
          +0.081*[#  36]+0.037*[#  10]+0.037*[#  11]+0.037*[#  13]+0.027*[#  19]
          +0.027*[#  20]+0.027*[#  22]+0.016*[#  24]+0.016*[#  25]+0.016*[#  26]
          +0.011*[#   6]+0.011*[#   7]+0.011*[#   8]
    |psi|^2 = 0.999
==== e(  36) =    20.26452 eV ==== 
     psi = 0.418*[#  45]+0.418*[#  48]+0.037*[#  32]+0.037*[#  35]+0.024*[#   9]
          +0.024*[#  12]+0.012*[#  18]+0.012*[#  21]
    |psi|^2 = 0.985

 k =  -0.1000000000  0.0000000000  0.0000000000
==== e(   1) =   -78.05973 eV ==== 
     psi = 0.967*[#  14]+0.011*[#  44]+0.010*[#  31]+0.005*[#   2]+0.004*[#  23]
          
    |psi|^2 = 1.000
==== e(   2) =   -69.52742 eV ==== 
     psi = 0.955*[#   1]+0.019*[#  44]+0.018*[#  31]+0.002*[#   2]+0.001*[#  23]
          
    |psi|^2 = 1.000
==== e(   3) =   -62.77695 eV ==== 
     psi = 0.959*[#  27]+0.019*[#   2]+0.008*[#  23]+0.006*[#  44]+0.004*[#  31]
          +0.001*[#   6]+0.001*[#   7]+0.001*[#   8]
    |psi|^2 = 1.000
==== e(   4) =   -41.32387 eV ==== 
     psi = 0.332*[#  15]+0.332*[#  16]+0.332*[#  17]
    |psi|^2 = 1.000
==== e(   5) =   -41.32380 eV ==== 
     psi = 0.332*[#  15]+0.332*[#  16]+0.332*[#  17]
    |psi|^2 = 1.000
==== e(   6) =   -41.32380 eV ==== 
     psi = 0.332*[#  15]+0.332*[#  16]+0.332*[#  17]
    |psi|^2 = 1.000
==== e(   7) =   -38.84666 eV ==== 
     psi = 0.929*[#  40]+0.031*[#   2]+0.013*[#  23]+0.011*[#  31]+0.005*[#  44]
          +0.002*[#   6]+0.002*[#   7]+0.002*[#   8]
    |psi|^2 = 1.000
==== e(   8) =   -35.59801 eV ==== 
     psi = 0.330*[#   3]+0.330*[#   4]+0.330*[#   5]
    |psi|^2 = 1.000
==== e(   9) =   -35.59801 eV ==== 
     psi = 0.330*[#   3]+0.330*[#   4]+0.330*[#   5]
    |psi|^2 = 1.000
==== e(  10) =   -35.59793 eV ==== 
     psi = 0.330*[#   3]+0.330*[#   4]+0.330*[#   5]
    |psi|^2 = 1.000
==== e(  11) =   -31.50890 eV ==== 
     psi = 0.332*[#  28]+0.332*[#  29]+0.332*[#  30]
    |psi|^2 = 1.000
==== e(  12) =   -31.50882 eV ==== 
     psi = 0.332*[#  28]+0.332*[#  29]+0.332*[#  30]
    |psi|^2 = 1.000
==== e(  13) =   -31.50882 eV ==== 
     psi = 0.332*[#  28]+0.332*[#  29]+0.332*[#  30]
    |psi|^2 = 1.000
==== e(  14) =   -15.12996 eV ==== 
     psi = 0.329*[#  41]+0.329*[#  42]+0.329*[#  43]+0.001*[#  37]+0.001*[#  38]
          +0.001*[#  39]
    |psi|^2 = 1.000
==== e(  15) =   -15.12938 eV ==== 
     psi = 0.329*[#  41]+0.329*[#  42]+0.329*[#  43]+0.001*[#  37]+0.001*[#  38]
          +0.001*[#  39]+0.001*[#  24]+0.001*[#  25]+0.001*[#  26]
    |psi|^2 = 1.000
==== e(  16) =   -15.12938 eV ==== 
     psi = 0.329*[#  41]+0.329*[#  42]+0.329*[#  43]+0.001*[#  37]+0.001*[#  38]
          +0.001*[#  39]+0.001*[#  24]+0.001*[#  25]+0.001*[#  26]
    |psi|^2 = 1.000
==== e(  17) =     9.75410 eV ==== 
     psi = 0.256*[#   2]+0.248*[#  31]+0.205*[#  44]+0.179*[#  23]+0.034*[#  40]
          +0.018*[#   1]+0.016*[#  27]+0.014*[#  14]+0.005*[#   6]+0.005*[#   7]
          +0.005*[#   8]+0.003*[#  37]+0.003*[#  38]+0.003*[#  39]+0.002*[#  24]
          +0.002*[#  25]+0.002*[#  26]
    |psi|^2 = 1.000
==== e(  18) =    13.30033 eV ==== 
     psi = 0.156*[#  18]+0.156*[#  21]+0.151*[#  32]+0.151*[#  35]+0.122*[#   9]
          +0.122*[#  12]+0.064*[#  45]+0.064*[#  48]
    |psi|^2 = 0.988
==== e(  19) =    13.30236 eV ==== 
     psi = 0.156*[#  18]+0.156*[#  21]+0.151*[#  32]+0.151*[#  35]+0.121*[#   9]
          +0.121*[#  12]+0.064*[#  45]+0.064*[#  48]
    |psi|^2 = 0.988
==== e(  20) =    14.74487 eV ==== 
     psi = 0.204*[#  33]+0.204*[#  34]+0.204*[#  36]+0.047*[#  19]+0.047*[#  20]
          +0.047*[#  22]+0.028*[#  46]+0.028*[#  47]+0.028*[#  49]+0.025*[#  24]
          +0.025*[#  25]+0.025*[#  26]+0.018*[#   6]+0.018*[#   7]+0.018*[#   8]
          +0.004*[#   9]+0.004*[#  12]+0.003*[#  18]+0.003*[#  21]+0.003*[#   2]
          +0.003*[#  37]+0.003*[#  38]+0.003*[#  39]+0.002*[#  23]
    |psi|^2 = 1.000
==== e(  21) =    14.74785 eV ==== 
     psi = 0.163*[#  33]+0.163*[#  34]+0.163*[#  36]+0.086*[#  19]+0.086*[#  20]
          +0.086*[#  22]+0.024*[#  10]+0.024*[#  11]+0.024*[#  13]+0.023*[#  46]
          +0.023*[#  47]+0.023*[#  49]+0.017*[#  24]+0.017*[#  25]+0.017*[#  26]
          +0.012*[#   6]+0.012*[#   7]+0.012*[#   8]+0.007*[#  37]+0.007*[#  38]
          +0.007*[#  39]
    |psi|^2 = 0.999
==== e(  22) =    14.74785 eV ==== 
     psi = 0.163*[#  33]+0.163*[#  34]+0.163*[#  36]+0.086*[#  19]+0.086*[#  20]
          +0.086*[#  22]+0.024*[#  10]+0.024*[#  11]+0.024*[#  13]+0.023*[#  46]
          +0.023*[#  47]+0.023*[#  49]+0.017*[#  24]+0.017*[#  25]+0.017*[#  26]
          +0.012*[#   6]+0.012*[#   7]+0.012*[#   8]+0.007*[#  37]+0.007*[#  38]
          +0.007*[#  39]
    |psi|^2 = 0.999
==== e(  23) =    14.90129 eV ==== 
     psi = 0.168*[#  19]+0.168*[#  20]+0.168*[#  22]+0.089*[#  10]+0.089*[#  11]
          +0.089*[#  13]+0.027*[#  37]+0.027*[#  38]+0.027*[#  39]+0.025*[#  33]
          +0.025*[#  34]+0.025*[#  36]+0.009*[#  46]+0.009*[#  47]+0.009*[#  49]
          +0.006*[#  24]+0.006*[#  25]+0.006*[#  26]+0.003*[#  32]+0.003*[#  35]
          +0.003*[#  31]+0.002*[#   6]+0.002*[#   7]+0.002*[#   8]+0.002*[#  18]
          +0.002*[#  21]+0.002*[#  41]+0.002*[#  42]+0.002*[#  43]
    |psi|^2 = 0.998
==== e(  24) =    15.02050 eV ==== 
     psi = 0.134*[#  19]+0.134*[#  20]+0.134*[#  22]+0.074*[#  33]+0.074*[#  34]
          +0.074*[#  36]+0.066*[#  10]+0.066*[#  11]+0.066*[#  13]+0.024*[#  37]
          +0.024*[#  38]+0.024*[#  39]+0.014*[#  24]+0.014*[#  25]+0.014*[#  26]
          +0.012*[#  46]+0.012*[#  47]+0.012*[#  49]+0.008*[#   6]+0.008*[#   7]
          +0.008*[#   8]+0.002*[#  41]+0.002*[#  42]+0.002*[#  43]
    |psi|^2 = 0.998
==== e(  25) =    15.02050 eV ==== 
     psi = 0.134*[#  19]+0.134*[#  20]+0.134*[#  22]+0.074*[#  33]+0.074*[#  34]
          +0.074*[#  36]+0.066*[#  10]+0.066*[#  11]+0.066*[#  13]+0.024*[#  37]
          +0.024*[#  38]+0.024*[#  39]+0.014*[#  24]+0.014*[#  25]+0.014*[#  26]
          +0.012*[#  46]+0.012*[#  47]+0.012*[#  49]+0.008*[#   6]+0.008*[#   7]
          +0.008*[#   8]+0.002*[#  41]+0.002*[#  42]+0.002*[#  43]
    |psi|^2 = 0.998
==== e(  26) =    16.25394 eV ==== 
     psi = 0.179*[#  10]+0.179*[#  11]+0.179*[#  13]+0.071*[#  19]+0.071*[#  20]
          +0.071*[#  22]+0.056*[#  46]+0.056*[#  47]+0.056*[#  49]+0.009*[#  18]
          +0.009*[#  21]+0.007*[#   9]+0.007*[#  12]+0.006*[#  24]+0.006*[#  25]
          +0.006*[#  26]+0.004*[#   6]+0.004*[#   7]+0.004*[#   8]+0.004*[#  33]
          +0.004*[#  34]+0.004*[#  36]+0.002*[#  37]+0.002*[#  38]+0.002*[#  39]
          
    |psi|^2 = 0.999
==== e(  27) =    16.27700 eV ==== 
     psi = 0.185*[#  10]+0.185*[#  11]+0.185*[#  13]+0.070*[#  19]+0.070*[#  20]
          +0.070*[#  22]+0.061*[#  46]+0.061*[#  47]+0.061*[#  49]+0.007*[#  24]
          +0.007*[#  25]+0.007*[#  26]+0.005*[#   6]+0.005*[#   7]+0.005*[#   8]
          +0.003*[#  37]+0.003*[#  38]+0.003*[#  39]+0.001*[#  33]+0.001*[#  34]
          +0.001*[#  36]
    |psi|^2 = 0.998
==== e(  28) =    16.27700 eV ==== 
     psi = 0.185*[#  10]+0.185*[#  11]+0.185*[#  13]+0.070*[#  19]+0.070*[#  20]
          +0.070*[#  22]+0.061*[#  46]+0.061*[#  47]+0.061*[#  49]+0.007*[#  24]
          +0.007*[#  25]+0.007*[#  26]+0.005*[#   6]+0.005*[#   7]+0.005*[#   8]
          +0.003*[#  37]+0.003*[#  38]+0.003*[#  39]+0.001*[#  33]+0.001*[#  34]
          +0.001*[#  36]
    |psi|^2 = 0.998
==== e(  29) =    16.64729 eV ==== 
     psi = 0.312*[#  18]+0.312*[#  21]+0.166*[#  32]+0.166*[#  35]+0.018*[#   9]
          +0.018*[#  12]+0.004*[#  45]+0.004*[#  48]
    |psi|^2 = 1.000
==== e(  30) =    16.67226 eV ==== 
     psi = 0.299*[#  18]+0.299*[#  21]+0.165*[#  32]+0.165*[#  35]+0.016*[#   9]
          +0.016*[#  12]+0.004*[#  19]+0.004*[#  20]+0.004*[#  22]+0.003*[#  33]
          +0.003*[#  34]+0.003*[#  36]+0.003*[#  45]+0.003*[#  48]+0.002*[#  46]
          +0.002*[#  47]+0.002*[#  49]+0.001*[#  10]+0.001*[#  11]+0.001*[#  13]
          
    |psi|^2 = 1.000
==== e(  31) =    17.15840 eV ==== 
     psi = 0.336*[#   9]+0.336*[#  12]+0.145*[#  32]+0.145*[#  35]+0.019*[#  18]
          +0.019*[#  21]
    |psi|^2 = 1.000
==== e(  32) =    17.18128 eV ==== 
     psi = 0.325*[#   9]+0.325*[#  12]+0.145*[#  32]+0.145*[#  35]+0.016*[#  18]
          +0.016*[#  21]+0.005*[#  10]+0.005*[#  11]+0.005*[#  13]+0.003*[#  33]
          +0.003*[#  34]+0.003*[#  36]+0.001*[#  46]+0.001*[#  47]+0.001*[#  49]
          
    |psi|^2 = 1.000
==== e(  33) =    19.37652 eV ==== 
     psi = 0.158*[#  46]+0.158*[#  47]+0.158*[#  49]+0.081*[#  33]+0.081*[#  34]
          +0.081*[#  36]+0.036*[#  10]+0.036*[#  11]+0.036*[#  13]+0.027*[#  19]
          +0.027*[#  20]+0.027*[#  22]+0.017*[#  24]+0.017*[#  25]+0.017*[#  26]
          +0.012*[#   6]+0.012*[#   7]+0.012*[#   8]+0.002*[#  37]+0.002*[#  38]
          +0.002*[#  39]
    |psi|^2 = 0.999
==== e(  34) =    19.37652 eV ==== 
     psi = 0.158*[#  46]+0.158*[#  47]+0.158*[#  49]+0.081*[#  33]+0.081*[#  34]
          +0.081*[#  36]+0.036*[#  10]+0.036*[#  11]+0.036*[#  13]+0.027*[#  19]
          +0.027*[#  20]+0.027*[#  22]+0.017*[#  24]+0.017*[#  25]+0.017*[#  26]
          +0.012*[#   6]+0.012*[#   7]+0.012*[#   8]+0.002*[#  37]+0.002*[#  38]
          +0.002*[#  39]
    |psi|^2 = 0.999
==== e(  35) =    19.42259 eV ==== 
     psi = 0.159*[#  46]+0.159*[#  47]+0.159*[#  49]+0.081*[#  33]+0.081*[#  34]
          +0.081*[#  36]+0.035*[#  10]+0.035*[#  11]+0.035*[#  13]+0.027*[#  19]
          +0.027*[#  20]+0.027*[#  22]+0.016*[#  24]+0.016*[#  25]+0.016*[#  26]
          +0.011*[#   6]+0.011*[#   7]+0.011*[#   8]+0.002*[#   2]+0.002*[#  23]
          +0.001*[#  18]+0.001*[#  21]+0.001*[#  45]+0.001*[#  48]
    |psi|^2 = 0.999
==== e(  36) =    20.23037 eV ==== 
     psi = 0.412*[#  45]+0.412*[#  48]+0.035*[#  32]+0.035*[#  35]+0.025*[#   9]
          +0.025*[#  12]+0.012*[#  18]+0.012*[#  21]+0.002*[#  10]+0.002*[#  11]
          +0.002*[#  13]+0.001*[#  37]+0.001*[#  38]+0.001*[#  39]
    |psi|^2 = 0.986

 k =  -0.1500000000  0.0000000000  0.0000000000
==== e(   1) =   -78.05972 eV ==== 
     psi = 0.965*[#  14]+0.010*[#  44]+0.010*[#  31]+0.004*[#  23]+0.004*[#   2]
          +0.001*[#   6]+0.001*[#   7]+0.001*[#   8]
    |psi|^2 = 1.000
==== e(   2) =   -69.52735 eV ==== 
     psi = 0.953*[#   1]+0.017*[#  44]+0.016*[#  31]+0.003*[#   2]+0.002*[#  37]
          +0.002*[#  38]+0.002*[#  39]+0.001*[#   6]+0.001*[#   7]+0.001*[#   8]
          +0.001*[#  23]
    |psi|^2 = 1.000
==== e(   3) =   -62.77696 eV ==== 
     psi = 0.956*[#  27]+0.017*[#   2]+0.007*[#  23]+0.005*[#  44]+0.004*[#  31]
          +0.002*[#   6]+0.002*[#   7]+0.002*[#   8]
    |psi|^2 = 1.000
==== e(   4) =   -41.32396 eV ==== 
     psi = 0.332*[#  15]+0.332*[#  16]+0.332*[#  17]
    |psi|^2 = 1.000
==== e(   5) =   -41.32382 eV ==== 
     psi = 0.332*[#  15]+0.332*[#  16]+0.332*[#  17]
    |psi|^2 = 1.000
==== e(   6) =   -41.32382 eV ==== 
     psi = 0.332*[#  15]+0.332*[#  16]+0.332*[#  17]
    |psi|^2 = 1.000
==== e(   7) =   -38.84663 eV ==== 
     psi = 0.924*[#  40]+0.028*[#   2]+0.012*[#  23]+0.009*[#  31]+0.006*[#  44]
          +0.004*[#   6]+0.004*[#   7]+0.004*[#   8]+0.002*[#  37]+0.002*[#  38]
          +0.002*[#  39]+0.001*[#  24]+0.001*[#  25]+0.001*[#  26]
    |psi|^2 = 1.000
==== e(   8) =   -35.59809 eV ==== 
     psi = 0.330*[#   3]+0.330*[#   4]+0.330*[#   5]
    |psi|^2 = 1.000
==== e(   9) =   -35.59809 eV ==== 
     psi = 0.330*[#   3]+0.330*[#   4]+0.330*[#   5]
    |psi|^2 = 1.000
==== e(  10) =   -35.59752 eV ==== 
     psi = 0.330*[#   3]+0.330*[#   4]+0.330*[#   5]
    |psi|^2 = 1.000
==== e(  11) =   -31.50896 eV ==== 
     psi = 0.332*[#  28]+0.332*[#  29]+0.332*[#  30]
    |psi|^2 = 1.000
==== e(  12) =   -31.50878 eV ==== 
     psi = 0.332*[#  28]+0.332*[#  29]+0.332*[#  30]
    |psi|^2 = 1.000
==== e(  13) =   -31.50878 eV ==== 
     psi = 0.332*[#  28]+0.332*[#  29]+0.332*[#  30]
    |psi|^2 = 1.000
==== e(  14) =   -15.13072 eV ==== 
     psi = 0.329*[#  41]+0.329*[#  42]+0.329*[#  43]+0.001*[#   2]
    |psi|^2 = 1.000
==== e(  15) =   -15.12944 eV ==== 
     psi = 0.328*[#  41]+0.328*[#  42]+0.328*[#  43]+0.001*[#  37]+0.001*[#  38]
          +0.001*[#  39]+0.001*[#  24]+0.001*[#  25]+0.001*[#  26]
    |psi|^2 = 1.000
==== e(  16) =   -15.12944 eV ==== 
     psi = 0.328*[#  41]+0.328*[#  42]+0.328*[#  43]+0.001*[#  37]+0.001*[#  38]
          +0.001*[#  39]+0.001*[#  24]+0.001*[#  25]+0.001*[#  26]
    |psi|^2 = 1.000
==== e(  17) =     9.81850 eV ==== 
     psi = 0.246*[#   2]+0.239*[#  31]+0.196*[#  44]+0.174*[#  23]+0.034*[#  40]
          +0.018*[#   1]+0.017*[#  27]+0.014*[#  14]+0.010*[#   6]+0.010*[#   7]
          +0.010*[#   8]+0.007*[#  37]+0.007*[#  38]+0.007*[#  39]+0.004*[#  24]
          +0.004*[#  25]+0.004*[#  26]
    |psi|^2 = 1.000
==== e(  18) =    13.32811 eV ==== 
     psi = 0.157*[#  18]+0.157*[#  21]+0.151*[#  32]+0.151*[#  35]+0.122*[#   9]
          +0.122*[#  12]+0.064*[#  45]+0.064*[#  48]
    |psi|^2 = 0.988
==== e(  19) =    13.33216 eV ==== 
     psi = 0.156*[#  18]+0.156*[#  21]+0.150*[#  32]+0.150*[#  35]+0.120*[#   9]
          +0.120*[#  12]+0.063*[#  45]+0.063*[#  48]+0.002*[#   6]+0.002*[#   7]
          +0.002*[#   8]+0.001*[#  24]+0.001*[#  25]+0.001*[#  26]
    |psi|^2 = 0.989
==== e(  20) =    14.68583 eV ==== 
     psi = 0.205*[#  33]+0.205*[#  34]+0.205*[#  36]+0.033*[#  19]+0.033*[#  20]
          +0.033*[#  22]+0.032*[#  46]+0.032*[#  47]+0.032*[#  49]+0.026*[#  24]
          +0.026*[#  25]+0.026*[#  26]+0.018*[#   6]+0.018*[#   7]+0.018*[#   8]
          +0.009*[#   9]+0.009*[#  12]+0.008*[#  18]+0.008*[#  21]+0.006*[#   2]
          +0.004*[#  23]+0.002*[#  37]+0.002*[#  38]+0.002*[#  39]
    |psi|^2 = 1.000
==== e(  21) =    14.71866 eV ==== 
     psi = 0.150*[#  33]+0.150*[#  34]+0.150*[#  36]+0.095*[#  19]+0.095*[#  20]
          +0.095*[#  22]+0.032*[#  10]+0.032*[#  11]+0.032*[#  13]+0.023*[#  46]
          +0.023*[#  47]+0.023*[#  49]+0.014*[#  24]+0.014*[#  25]+0.014*[#  26]
          +0.010*[#   6]+0.010*[#   7]+0.010*[#   8]+0.008*[#  37]+0.008*[#  38]
          +0.008*[#  39]
    |psi|^2 = 0.999
==== e(  22) =    14.71866 eV ==== 
     psi = 0.150*[#  33]+0.150*[#  34]+0.150*[#  36]+0.095*[#  19]+0.095*[#  20]
          +0.095*[#  22]+0.032*[#  10]+0.032*[#  11]+0.032*[#  13]+0.023*[#  46]
          +0.023*[#  47]+0.023*[#  49]+0.014*[#  24]+0.014*[#  25]+0.014*[#  26]
          +0.010*[#   6]+0.010*[#   7]+0.010*[#   8]+0.008*[#  37]+0.008*[#  38]
          +0.008*[#  39]
    |psi|^2 = 0.999
==== e(  23) =    14.85102 eV ==== 
     psi = 0.176*[#  19]+0.176*[#  20]+0.176*[#  22]+0.089*[#  10]+0.089*[#  11]
          +0.089*[#  13]+0.027*[#  37]+0.027*[#  38]+0.027*[#  39]+0.015*[#  33]
          +0.015*[#  34]+0.015*[#  36]+0.007*[#  46]+0.007*[#  47]+0.007*[#  49]
          +0.007*[#  31]+0.007*[#  32]+0.007*[#  35]+0.004*[#  24]+0.004*[#  25]
          +0.004*[#  26]+0.003*[#  18]+0.003*[#  21]+0.002*[#  45]+0.002*[#  48]
          +0.002*[#  44]+0.002*[#  41]+0.002*[#  42]+0.002*[#  43]+0.001*[#   6]
          +0.001*[#   7]+0.001*[#   8]+0.001*[#  23]
    |psi|^2 = 0.998
==== e(  24) =    15.09026 eV ==== 
     psi = 0.126*[#  19]+0.126*[#  20]+0.126*[#  22]+0.087*[#  33]+0.087*[#  34]
          +0.087*[#  36]+0.057*[#  10]+0.057*[#  11]+0.057*[#  13]+0.023*[#  37]
          +0.023*[#  38]+0.023*[#  39]+0.016*[#  24]+0.016*[#  25]+0.016*[#  26]
          +0.011*[#  46]+0.011*[#  47]+0.011*[#  49]+0.010*[#   6]+0.010*[#   7]
          +0.010*[#   8]+0.002*[#  41]+0.002*[#  42]+0.002*[#  43]
    |psi|^2 = 0.999
==== e(  25) =    15.09026 eV ==== 
     psi = 0.126*[#  19]+0.126*[#  20]+0.126*[#  22]+0.087*[#  33]+0.087*[#  34]
          +0.087*[#  36]+0.057*[#  10]+0.057*[#  11]+0.057*[#  13]+0.023*[#  37]
          +0.023*[#  38]+0.023*[#  39]+0.016*[#  24]+0.016*[#  25]+0.016*[#  26]
          +0.011*[#  46]+0.011*[#  47]+0.011*[#  49]+0.010*[#   6]+0.010*[#   7]
          +0.010*[#   8]+0.002*[#  41]+0.002*[#  42]+0.002*[#  43]
    |psi|^2 = 0.999
==== e(  26) =    16.23710 eV ==== 
     psi = 0.173*[#  10]+0.173*[#  11]+0.173*[#  13]+0.072*[#  19]+0.072*[#  20]
          +0.072*[#  22]+0.051*[#  46]+0.051*[#  47]+0.051*[#  49]+0.015*[#  18]
          +0.015*[#  21]+0.014*[#   9]+0.014*[#  12]+0.007*[#  33]+0.007*[#  34]
          +0.007*[#  36]+0.005*[#  24]+0.005*[#  25]+0.005*[#  26]+0.003*[#   6]
          +0.003*[#   7]+0.003*[#   8]+0.002*[#  37]+0.002*[#  38]+0.002*[#  39]
          +0.001*[#   2]
    |psi|^2 = 0.999
==== e(  27) =    16.28334 eV ==== 
     psi = 0.186*[#  10]+0.186*[#  11]+0.186*[#  13]+0.069*[#  19]+0.069*[#  20]
          +0.069*[#  22]+0.060*[#  46]+0.060*[#  47]+0.060*[#  49]+0.008*[#  24]
          +0.008*[#  25]+0.008*[#  26]+0.005*[#   6]+0.005*[#   7]+0.005*[#   8]
          +0.003*[#  37]+0.003*[#  38]+0.003*[#  39]
    |psi|^2 = 0.998
==== e(  28) =    16.28334 eV ==== 
     psi = 0.186*[#  10]+0.186*[#  11]+0.186*[#  13]+0.069*[#  19]+0.069*[#  20]
          +0.069*[#  22]+0.060*[#  46]+0.060*[#  47]+0.060*[#  49]+0.008*[#  24]
          +0.008*[#  25]+0.008*[#  26]+0.005*[#   6]+0.005*[#   7]+0.005*[#   8]
          +0.003*[#  37]+0.003*[#  38]+0.003*[#  39]
    |psi|^2 = 0.998
==== e(  29) =    16.63550 eV ==== 
     psi = 0.309*[#  18]+0.309*[#  21]+0.172*[#  32]+0.172*[#  35]+0.015*[#   9]
          +0.015*[#  12]+0.004*[#  45]+0.004*[#  48]
    |psi|^2 = 1.000
==== e(  30) =    16.68835 eV ==== 
     psi = 0.285*[#  18]+0.285*[#  21]+0.169*[#  32]+0.169*[#  35]+0.012*[#   9]
          +0.012*[#  12]+0.008*[#  19]+0.008*[#  20]+0.008*[#  22]+0.006*[#  33]
          +0.006*[#  34]+0.006*[#  36]+0.003*[#  46]+0.003*[#  47]+0.003*[#  49]
          +0.003*[#  45]+0.003*[#  48]+0.002*[#  10]+0.002*[#  11]+0.002*[#  13]
          
    |psi|^2 = 1.000
==== e(  31) =    17.14686 eV ==== 
     psi = 0.340*[#   9]+0.340*[#  12]+0.138*[#  32]+0.138*[#  35]+0.022*[#  18]
          +0.022*[#  21]
    |psi|^2 = 1.000
==== e(  32) =    17.19596 eV ==== 
     psi = 0.316*[#   9]+0.316*[#  12]+0.139*[#  32]+0.139*[#  35]+0.016*[#  18]
          +0.016*[#  21]+0.010*[#  10]+0.010*[#  11]+0.010*[#  13]+0.005*[#  33]
          +0.005*[#  34]+0.005*[#  36]+0.002*[#  46]+0.002*[#  47]+0.002*[#  49]
          
    |psi|^2 = 1.000
==== e(  33) =    19.30483 eV ==== 
     psi = 0.157*[#  46]+0.157*[#  47]+0.157*[#  49]+0.081*[#  33]+0.081*[#  34]
          +0.081*[#  36]+0.036*[#  10]+0.036*[#  11]+0.036*[#  13]+0.026*[#  19]
          +0.026*[#  20]+0.026*[#  22]+0.018*[#  24]+0.018*[#  25]+0.018*[#  26]
          +0.012*[#   6]+0.012*[#   7]+0.012*[#   8]+0.003*[#  37]+0.003*[#  38]
          +0.003*[#  39]
    |psi|^2 = 0.999
==== e(  34) =    19.30483 eV ==== 
     psi = 0.157*[#  46]+0.157*[#  47]+0.157*[#  49]+0.081*[#  33]+0.081*[#  34]
          +0.081*[#  36]+0.036*[#  10]+0.036*[#  11]+0.036*[#  13]+0.026*[#  19]
          +0.026*[#  20]+0.026*[#  22]+0.018*[#  24]+0.018*[#  25]+0.018*[#  26]
          +0.012*[#   6]+0.012*[#   7]+0.012*[#   8]+0.003*[#  37]+0.003*[#  38]
          +0.003*[#  39]
    |psi|^2 = 0.999
==== e(  35) =    19.40546 eV ==== 
     psi = 0.159*[#  46]+0.159*[#  47]+0.159*[#  49]+0.080*[#  33]+0.080*[#  34]
          +0.080*[#  36]+0.033*[#  10]+0.033*[#  11]+0.033*[#  13]+0.027*[#  19]
          +0.027*[#  20]+0.027*[#  22]+0.015*[#  24]+0.015*[#  25]+0.015*[#  26]
          +0.011*[#   6]+0.011*[#   7]+0.011*[#   8]+0.004*[#   2]+0.004*[#  23]
          +0.003*[#  18]+0.003*[#  21]+0.002*[#  45]+0.002*[#  48]+0.001*[#   9]
          +0.001*[#  12]
    |psi|^2 = 0.999
==== e(  36) =    20.17605 eV ==== 
     psi = 0.403*[#  45]+0.403*[#  48]+0.033*[#  32]+0.033*[#  35]+0.026*[#   9]
          +0.026*[#  12]+0.012*[#  18]+0.012*[#  21]+0.005*[#  10]+0.005*[#  11]
          +0.005*[#  13]+0.003*[#  37]+0.003*[#  38]+0.003*[#  39]+0.001*[#  19]
          +0.001*[#  20]+0.001*[#  22]+0.001*[#  24]+0.001*[#  25]+0.001*[#  26]
          
    |psi|^2 = 0.987

 k =  -0.2000000000  0.0000000000  0.0000000000
==== e(   1) =   -78.05972 eV ==== 
     psi = 0.964*[#  14]+0.009*[#  44]+0.009*[#  31]+0.005*[#  23]+0.003*[#   2]
          +0.002*[#   6]+0.002*[#   7]+0.002*[#   8]+0.002*[#  37]+0.002*[#  38]
          +0.002*[#  39]
    |psi|^2 = 1.000
==== e(   2) =   -69.52724 eV ==== 
     psi = 0.951*[#   1]+0.015*[#  44]+0.014*[#  31]+0.004*[#   2]+0.003*[#  37]
          +0.003*[#  38]+0.003*[#  39]+0.002*[#   6]+0.002*[#   7]+0.002*[#   8]
          +0.001*[#  24]+0.001*[#  25]+0.001*[#  26]
    |psi|^2 = 1.000
==== e(   3) =   -62.77697 eV ==== 
     psi = 0.953*[#  27]+0.015*[#   2]+0.006*[#  23]+0.005*[#  31]+0.004*[#  44]
          +0.004*[#   6]+0.004*[#   7]+0.004*[#   8]+0.001*[#  24]+0.001*[#  25]
          +0.001*[#  26]
    |psi|^2 = 1.000
==== e(   4) =   -41.32409 eV ==== 
     psi = 0.332*[#  15]+0.332*[#  16]+0.332*[#  17]
    |psi|^2 = 1.000
==== e(   5) =   -41.32384 eV ==== 
     psi = 0.332*[#  15]+0.332*[#  16]+0.332*[#  17]
    |psi|^2 = 1.000
==== e(   6) =   -41.32384 eV ==== 
     psi = 0.332*[#  15]+0.332*[#  16]+0.332*[#  17]
    |psi|^2 = 1.000
==== e(   7) =   -38.84660 eV ==== 
     psi = 0.918*[#  40]+0.024*[#   2]+0.010*[#  23]+0.008*[#  44]+0.007*[#  31]
          +0.006*[#   6]+0.006*[#   7]+0.006*[#   8]+0.003*[#  37]+0.003*[#  38]
          +0.003*[#  39]+0.002*[#  24]+0.002*[#  25]+0.002*[#  26]
    |psi|^2 = 1.000
==== e(   8) =   -35.59808 eV ==== 
     psi = 0.330*[#   3]+0.330*[#   4]+0.330*[#   5]
    |psi|^2 = 1.000
==== e(   9) =   -35.59808 eV ==== 
     psi = 0.330*[#   3]+0.330*[#   4]+0.330*[#   5]
    |psi|^2 = 1.000
==== e(  10) =   -35.59714 eV ==== 
     psi = 0.330*[#   3]+0.330*[#   4]+0.330*[#   5]+0.001*[#  44]
    |psi|^2 = 1.000
==== e(  11) =   -31.50906 eV ==== 
     psi = 0.332*[#  28]+0.332*[#  29]+0.332*[#  30]
    |psi|^2 = 1.000
==== e(  12) =   -31.50872 eV ==== 
     psi = 0.331*[#  28]+0.331*[#  29]+0.331*[#  30]
    |psi|^2 = 1.000
==== e(  13) =   -31.50872 eV ==== 
     psi = 0.331*[#  28]+0.331*[#  29]+0.331*[#  30]
    |psi|^2 = 1.000
==== e(  14) =   -15.13175 eV ==== 
     psi = 0.329*[#  41]+0.329*[#  42]+0.329*[#  43]+0.002*[#   2]+0.001*[#  31]
          +0.001*[#  23]
    |psi|^2 = 1.000
==== e(  15) =   -15.12953 eV ==== 
     psi = 0.328*[#  41]+0.328*[#  42]+0.328*[#  43]+0.001*[#  24]+0.001*[#  25]
          +0.001*[#  26]+0.001*[#  37]+0.001*[#  38]+0.001*[#  39]
    |psi|^2 = 1.000
==== e(  16) =   -15.12953 eV ==== 
     psi = 0.328*[#  41]+0.328*[#  42]+0.328*[#  43]+0.001*[#  24]+0.001*[#  25]
          +0.001*[#  26]+0.001*[#  37]+0.001*[#  38]+0.001*[#  39]
    |psi|^2 = 1.000
==== e(  17) =     9.90806 eV ==== 
     psi = 0.233*[#   2]+0.228*[#  31]+0.184*[#  44]+0.167*[#  23]+0.035*[#  40]
          +0.018*[#   1]+0.017*[#  27]+0.016*[#   6]+0.016*[#   7]+0.016*[#   8]
          +0.014*[#  14]+0.011*[#  37]+0.011*[#  38]+0.011*[#  39]+0.006*[#  24]
          +0.006*[#  25]+0.006*[#  26]
    |psi|^2 = 1.000
==== e(  18) =    13.36679 eV ==== 
     psi = 0.158*[#  18]+0.158*[#  21]+0.151*[#  32]+0.151*[#  35]+0.122*[#   9]
          +0.122*[#  12]+0.063*[#  45]+0.063*[#  48]
    |psi|^2 = 0.988
==== e(  19) =    13.37269 eV ==== 
     psi = 0.156*[#  18]+0.156*[#  21]+0.149*[#  32]+0.149*[#  35]+0.118*[#   9]
          +0.118*[#  12]+0.061*[#  45]+0.061*[#  48]+0.003*[#   6]+0.003*[#   7]
          +0.003*[#   8]+0.002*[#  24]+0.002*[#  25]+0.002*[#  26]+0.002*[#  37]
          +0.002*[#  38]+0.002*[#  39]
    |psi|^2 = 0.990
==== e(  20) =    14.60298 eV ==== 
     psi = 0.202*[#  33]+0.202*[#  34]+0.202*[#  36]+0.037*[#  46]+0.037*[#  47]
          +0.037*[#  49]+0.027*[#  24]+0.027*[#  25]+0.027*[#  26]+0.020*[#  19]
          +0.020*[#  20]+0.020*[#  22]+0.018*[#   6]+0.018*[#   7]+0.018*[#   8]
          +0.016*[#   9]+0.016*[#  12]+0.014*[#  18]+0.014*[#  21]+0.011*[#   2]
          +0.008*[#  23]
    |psi|^2 = 0.999
==== e(  21) =    14.69390 eV ==== 
     psi = 0.142*[#  33]+0.142*[#  34]+0.142*[#  36]+0.102*[#  19]+0.102*[#  20]
          +0.102*[#  22]+0.037*[#  10]+0.037*[#  11]+0.037*[#  13]+0.023*[#  46]
          +0.023*[#  47]+0.023*[#  49]+0.012*[#  24]+0.012*[#  25]+0.012*[#  26]
          +0.008*[#   6]+0.008*[#   7]+0.008*[#   8]+0.007*[#  37]+0.007*[#  38]
          +0.007*[#  39]
    |psi|^2 = 0.999
==== e(  22) =    14.69390 eV ==== 
     psi = 0.142*[#  33]+0.142*[#  34]+0.142*[#  36]+0.102*[#  19]+0.102*[#  20]
          +0.102*[#  22]+0.037*[#  10]+0.037*[#  11]+0.037*[#  13]+0.023*[#  46]
          +0.023*[#  47]+0.023*[#  49]+0.012*[#  24]+0.012*[#  25]+0.012*[#  26]
          +0.008*[#   6]+0.008*[#   7]+0.008*[#   8]+0.007*[#  37]+0.007*[#  38]
          +0.007*[#  39]
    |psi|^2 = 0.999
==== e(  23) =    14.78488 eV ==== 
     psi = 0.182*[#  19]+0.182*[#  20]+0.182*[#  22]+0.089*[#  10]+0.089*[#  11]
          +0.089*[#  13]+0.027*[#  37]+0.027*[#  38]+0.027*[#  39]+0.012*[#  31]
          +0.011*[#  32]+0.011*[#  35]+0.007*[#  33]+0.007*[#  34]+0.007*[#  36]
          +0.004*[#  46]+0.004*[#  47]+0.004*[#  49]+0.004*[#  45]+0.004*[#  48]
          +0.004*[#  44]+0.003*[#  18]+0.003*[#  21]+0.002*[#  24]+0.002*[#  25]
          +0.002*[#  26]+0.002*[#  23]+0.002*[#  41]+0.002*[#  42]+0.002*[#  43]
          
    |psi|^2 = 0.998
==== e(  24) =    15.17026 eV ==== 
     psi = 0.121*[#  19]+0.121*[#  20]+0.121*[#  22]+0.095*[#  33]+0.095*[#  34]
          +0.095*[#  36]+0.051*[#  10]+0.051*[#  11]+0.051*[#  13]+0.023*[#  37]
          +0.023*[#  38]+0.023*[#  39]+0.019*[#  24]+0.019*[#  25]+0.019*[#  26]
          +0.011*[#   6]+0.011*[#   7]+0.011*[#   8]+0.010*[#  46]+0.010*[#  47]
          +0.010*[#  49]+0.002*[#  41]+0.002*[#  42]+0.002*[#  43]
    |psi|^2 = 0.999
==== e(  25) =    15.17026 eV ==== 
     psi = 0.121*[#  19]+0.121*[#  20]+0.121*[#  22]+0.095*[#  33]+0.095*[#  34]
          +0.095*[#  36]+0.051*[#  10]+0.051*[#  11]+0.051*[#  13]+0.023*[#  37]
          +0.023*[#  38]+0.023*[#  39]+0.019*[#  24]+0.019*[#  25]+0.019*[#  26]
          +0.011*[#   6]+0.011*[#   7]+0.011*[#   8]+0.010*[#  46]+0.010*[#  47]
          +0.010*[#  49]+0.002*[#  41]+0.002*[#  42]+0.002*[#  43]
    |psi|^2 = 0.999
==== e(  26) =    16.22171 eV ==== 
     psi = 0.166*[#  10]+0.166*[#  11]+0.166*[#  13]+0.074*[#  19]+0.074*[#  20]
          +0.074*[#  22]+0.045*[#  46]+0.045*[#  47]+0.045*[#  49]+0.019*[#   9]
          +0.019*[#  12]+0.019*[#  18]+0.019*[#  21]+0.012*[#  33]+0.012*[#  34]
          +0.012*[#  36]+0.004*[#  24]+0.004*[#  25]+0.004*[#  26]+0.002*[#   6]
          +0.002*[#   7]+0.002*[#   8]+0.002*[#   2]+0.002*[#  37]+0.002*[#  38]
          +0.002*[#  39]+0.001*[#  45]+0.001*[#  48]
    |psi|^2 = 0.999
==== e(  27) =    16.29338 eV ==== 
     psi = 0.187*[#  10]+0.187*[#  11]+0.187*[#  13]+0.067*[#  19]+0.067*[#  20]
          +0.067*[#  22]+0.059*[#  46]+0.059*[#  47]+0.059*[#  49]+0.009*[#  24]
          +0.009*[#  25]+0.009*[#  26]+0.006*[#   6]+0.006*[#   7]+0.006*[#   8]
          +0.003*[#  37]+0.003*[#  38]+0.003*[#  39]
    |psi|^2 = 0.998
==== e(  28) =    16.29338 eV ==== 
     psi = 0.187*[#  10]+0.187*[#  11]+0.187*[#  13]+0.067*[#  19]+0.067*[#  20]
          +0.067*[#  22]+0.059*[#  46]+0.059*[#  47]+0.059*[#  49]+0.009*[#  24]
          +0.009*[#  25]+0.009*[#  26]+0.006*[#   6]+0.006*[#   7]+0.006*[#   8]
          +0.003*[#  37]+0.003*[#  38]+0.003*[#  39]
    |psi|^2 = 0.998
==== e(  29) =    16.61823 eV ==== 
     psi = 0.303*[#  18]+0.303*[#  21]+0.181*[#  32]+0.181*[#  35]+0.011*[#   9]
          +0.011*[#  12]+0.004*[#  45]+0.004*[#  48]
    |psi|^2 = 0.999
==== e(  30) =    16.70630 eV ==== 
     psi = 0.272*[#  18]+0.272*[#  21]+0.172*[#  32]+0.172*[#  35]+0.012*[#  19]
          +0.012*[#  20]+0.012*[#  22]+0.010*[#  33]+0.010*[#  34]+0.010*[#  36]
          +0.009*[#   9]+0.009*[#  12]+0.004*[#  46]+0.004*[#  47]+0.004*[#  49]
          +0.002*[#  45]+0.002*[#  48]+0.002*[#  10]+0.002*[#  11]+0.002*[#  13]
          
    |psi|^2 = 1.000
==== e(  31) =    17.13148 eV ==== 
     psi = 0.345*[#   9]+0.345*[#  12]+0.128*[#  32]+0.128*[#  35]+0.027*[#  18]
          +0.027*[#  21]
    |psi|^2 = 1.000
==== e(  32) =    17.21339 eV ==== 
     psi = 0.304*[#   9]+0.304*[#  12]+0.133*[#  32]+0.133*[#  35]+0.017*[#  10]
          +0.017*[#  11]+0.017*[#  13]+0.016*[#  18]+0.016*[#  21]+0.009*[#  33]
          +0.009*[#  34]+0.009*[#  36]+0.003*[#  46]+0.003*[#  47]+0.003*[#  49]
          
    |psi|^2 = 1.000
==== e(  33) =    19.21000 eV ==== 
     psi = 0.156*[#  46]+0.156*[#  47]+0.156*[#  49]+0.080*[#  33]+0.080*[#  34]
          +0.080*[#  36]+0.035*[#  10]+0.035*[#  11]+0.035*[#  13]+0.025*[#  19]
          +0.025*[#  20]+0.025*[#  22]+0.019*[#  24]+0.019*[#  25]+0.019*[#  26]
          +0.013*[#   6]+0.013*[#   7]+0.013*[#   8]+0.005*[#  37]+0.005*[#  38]
          +0.005*[#  39]
    |psi|^2 = 0.999
==== e(  34) =    19.21000 eV ==== 
     psi = 0.156*[#  46]+0.156*[#  47]+0.156*[#  49]+0.080*[#  33]+0.080*[#  34]
          +0.080*[#  36]+0.035*[#  10]+0.035*[#  11]+0.035*[#  13]+0.025*[#  19]
          +0.025*[#  20]+0.025*[#  22]+0.019*[#  24]+0.019*[#  25]+0.019*[#  26]
          +0.013*[#   6]+0.013*[#   7]+0.013*[#   8]+0.005*[#  37]+0.005*[#  38]
          +0.005*[#  39]
    |psi|^2 = 0.999
==== e(  35) =    19.38187 eV ==== 
     psi = 0.159*[#  46]+0.159*[#  47]+0.159*[#  49]+0.079*[#  33]+0.079*[#  34]
          +0.079*[#  36]+0.031*[#  10]+0.031*[#  11]+0.031*[#  13]+0.027*[#  19]
          +0.027*[#  20]+0.027*[#  22]+0.013*[#  24]+0.013*[#  25]+0.013*[#  26]
          +0.011*[#   6]+0.011*[#   7]+0.011*[#   8]+0.008*[#   2]+0.007*[#  23]
          +0.005*[#  18]+0.005*[#  21]+0.004*[#  45]+0.004*[#  48]+0.002*[#   9]
          +0.002*[#  12]
    |psi|^2 = 0.998
==== e(  36) =    20.10491 eV ==== 
     psi = 0.391*[#  45]+0.391*[#  48]+0.031*[#  32]+0.031*[#  35]+0.028*[#   9]
          +0.028*[#  12]+0.013*[#  18]+0.013*[#  21]+0.009*[#  10]+0.009*[#  11]
          +0.009*[#  13]+0.005*[#  37]+0.005*[#  38]+0.005*[#  39]+0.002*[#  24]
          +0.002*[#  25]+0.002*[#  26]+0.002*[#  19]+0.002*[#  20]+0.002*[#  22]
          +0.001*[#  46]+0.001*[#  47]+0.001*[#  49]
    |psi|^2 = 0.989

 k =  -0.2500000000  0.0000000000  0.0000000000
==== e(   1) =   -78.05972 eV ==== 
     psi = 0.962*[#  14]+0.007*[#  31]+0.007*[#  44]+0.005*[#  23]+0.003*[#   2]
          +0.002*[#   6]+0.002*[#   7]+0.002*[#   8]+0.002*[#  37]+0.002*[#  38]
          +0.002*[#  39]
    |psi|^2 = 1.000
==== e(   2) =   -69.52712 eV ==== 
     psi = 0.948*[#   1]+0.012*[#  31]+0.012*[#  44]+0.004*[#   2]+0.004*[#  37]
          +0.004*[#  38]+0.004*[#  39]+0.002*[#   6]+0.002*[#   7]+0.002*[#   8]
          +0.001*[#  24]+0.001*[#  25]+0.001*[#  26]
    |psi|^2 = 1.000
==== e(   3) =   -62.77698 eV ==== 
     psi = 0.950*[#  27]+0.013*[#   2]+0.006*[#  31]+0.005*[#  23]+0.005*[#   6]
          +0.005*[#   7]+0.005*[#   8]+0.003*[#  44]+0.002*[#  24]+0.002*[#  25]
          +0.002*[#  26]
    |psi|^2 = 1.000
==== e(   4) =   -41.32425 eV ==== 
     psi = 0.332*[#  15]+0.332*[#  16]+0.332*[#  17]
    |psi|^2 = 1.000
==== e(   5) =   -41.32386 eV ==== 
     psi = 0.332*[#  15]+0.332*[#  16]+0.332*[#  17]
    |psi|^2 = 1.000
==== e(   6) =   -41.32386 eV ==== 
     psi = 0.332*[#  15]+0.332*[#  16]+0.332*[#  17]
    |psi|^2 = 1.000
==== e(   7) =   -38.84656 eV ==== 
     psi = 0.912*[#  40]+0.020*[#   2]+0.009*[#  44]+0.008*[#  23]+0.008*[#   6]
          +0.008*[#   7]+0.008*[#   8]+0.005*[#  31]+0.004*[#  37]+0.004*[#  38]
          +0.004*[#  39]+0.003*[#  24]+0.003*[#  25]+0.003*[#  26]
    |psi|^2 = 1.000
==== e(   8) =   -35.59804 eV ==== 
     psi = 0.330*[#   3]+0.330*[#   4]+0.330*[#   5]
    |psi|^2 = 1.000
==== e(   9) =   -35.59804 eV ==== 
     psi = 0.330*[#   3]+0.330*[#   4]+0.330*[#   5]
    |psi|^2 = 1.000
==== e(  10) =   -35.59674 eV ==== 
     psi = 0.330*[#   3]+0.330*[#   4]+0.330*[#   5]+0.002*[#  44]+0.001*[#  31]
          
    |psi|^2 = 1.000
==== e(  11) =   -31.50918 eV ==== 
     psi = 0.331*[#  28]+0.331*[#  29]+0.331*[#  30]
    |psi|^2 = 1.000
==== e(  12) =   -31.50865 eV ==== 
     psi = 0.331*[#  28]+0.331*[#  29]+0.331*[#  30]
    |psi|^2 = 1.000
==== e(  13) =   -31.50865 eV ==== 
     psi = 0.331*[#  28]+0.331*[#  29]+0.331*[#  30]
    |psi|^2 = 1.000
==== e(  14) =   -15.13300 eV ==== 
     psi = 0.329*[#  41]+0.329*[#  42]+0.329*[#  43]+0.003*[#   2]+0.002*[#  31]
          +0.002*[#  23]
    |psi|^2 = 1.000
==== e(  15) =   -15.12964 eV ==== 
     psi = 0.328*[#  41]+0.328*[#  42]+0.328*[#  43]+0.002*[#  24]+0.002*[#  25]
          +0.002*[#  26]+0.001*[#  37]+0.001*[#  38]+0.001*[#  39]+0.001*[#   6]
          +0.001*[#   7]+0.001*[#   8]
    |psi|^2 = 1.000
==== e(  16) =   -15.12964 eV ==== 
     psi = 0.328*[#  41]+0.328*[#  42]+0.328*[#  43]+0.002*[#  24]+0.002*[#  25]
          +0.002*[#  26]+0.001*[#  37]+0.001*[#  38]+0.001*[#  39]+0.001*[#   6]
          +0.001*[#   7]+0.001*[#   8]
    |psi|^2 = 1.000
==== e(  17) =    10.02215 eV ==== 
     psi = 0.219*[#   2]+0.216*[#  31]+0.171*[#  44]+0.159*[#  23]+0.036*[#  40]
          +0.023*[#   6]+0.023*[#   7]+0.023*[#   8]+0.019*[#   1]+0.017*[#  27]
          +0.016*[#  37]+0.016*[#  38]+0.016*[#  39]+0.015*[#  14]+0.009*[#  24]
          +0.009*[#  25]+0.009*[#  26]
    |psi|^2 = 1.000
==== e(  18) =    13.41614 eV ==== 
     psi = 0.159*[#  18]+0.159*[#  21]+0.151*[#  32]+0.151*[#  35]+0.122*[#   9]
          +0.122*[#  12]+0.062*[#  45]+0.062*[#  48]
    |psi|^2 = 0.988
==== e(  19) =    13.42275 eV ==== 
     psi = 0.156*[#  18]+0.156*[#  21]+0.148*[#  32]+0.148*[#  35]+0.116*[#   9]
          +0.116*[#  12]+0.059*[#  45]+0.059*[#  48]+0.004*[#   6]+0.004*[#   7]
          +0.004*[#   8]+0.003*[#  24]+0.003*[#  25]+0.003*[#  26]+0.003*[#  37]
          +0.003*[#  38]+0.003*[#  39]+0.001*[#   2]
    |psi|^2 = 0.991
==== e(  20) =    14.49858 eV ==== 
     psi = 0.194*[#  33]+0.194*[#  34]+0.194*[#  36]+0.040*[#  46]+0.040*[#  47]
          +0.040*[#  49]+0.028*[#  24]+0.028*[#  25]+0.028*[#  26]+0.024*[#   9]
          +0.024*[#  12]+0.022*[#  18]+0.022*[#  21]+0.017*[#   6]+0.017*[#   7]
          +0.017*[#   8]+0.016*[#   2]+0.013*[#  23]+0.011*[#  19]+0.011*[#  20]
          +0.011*[#  22]
    |psi|^2 = 0.999
==== e(  21) =    14.67472 eV ==== 
     psi = 0.137*[#  33]+0.137*[#  34]+0.137*[#  36]+0.107*[#  19]+0.107*[#  20]
          +0.107*[#  22]+0.041*[#  10]+0.041*[#  11]+0.041*[#  13]+0.022*[#  46]
          +0.022*[#  47]+0.022*[#  49]+0.010*[#  24]+0.010*[#  25]+0.010*[#  26]
          +0.007*[#   6]+0.007*[#   7]+0.007*[#   8]+0.007*[#  37]+0.007*[#  38]
          +0.007*[#  39]
    |psi|^2 = 0.998
==== e(  22) =    14.67472 eV ==== 
     psi = 0.137*[#  33]+0.137*[#  34]+0.137*[#  36]+0.107*[#  19]+0.107*[#  20]
          +0.107*[#  22]+0.041*[#  10]+0.041*[#  11]+0.041*[#  13]+0.022*[#  46]
          +0.022*[#  47]+0.022*[#  49]+0.010*[#  24]+0.010*[#  25]+0.010*[#  26]
          +0.007*[#   6]+0.007*[#   7]+0.007*[#   8]+0.007*[#  37]+0.007*[#  38]
          +0.007*[#  39]
    |psi|^2 = 0.998
==== e(  23) =    14.70490 eV ==== 
     psi = 0.182*[#  19]+0.182*[#  20]+0.182*[#  22]+0.089*[#  10]+0.089*[#  11]
          +0.089*[#  13]+0.026*[#  37]+0.026*[#  38]+0.026*[#  39]+0.018*[#  31]
          +0.017*[#  32]+0.017*[#  35]+0.007*[#  45]+0.007*[#  48]+0.006*[#  44]
          +0.003*[#  18]+0.003*[#  21]+0.003*[#  33]+0.003*[#  34]+0.003*[#  36]
          +0.003*[#  46]+0.003*[#  47]+0.003*[#  49]+0.002*[#  23]+0.002*[#  41]
          +0.002*[#  42]+0.002*[#  43]
    |psi|^2 = 0.998
==== e(  24) =    15.25763 eV ==== 
     psi = 0.119*[#  19]+0.119*[#  20]+0.119*[#  22]+0.101*[#  33]+0.101*[#  34]
          +0.101*[#  36]+0.047*[#  10]+0.047*[#  11]+0.047*[#  13]+0.023*[#  37]
          +0.023*[#  38]+0.023*[#  39]+0.020*[#  24]+0.020*[#  25]+0.020*[#  26]
          +0.012*[#   6]+0.012*[#   7]+0.012*[#   8]+0.008*[#  46]+0.008*[#  47]
          +0.008*[#  49]+0.001*[#  41]+0.001*[#  42]+0.001*[#  43]
    |psi|^2 = 0.999
==== e(  25) =    15.25763 eV ==== 
     psi = 0.119*[#  19]+0.119*[#  20]+0.119*[#  22]+0.101*[#  33]+0.101*[#  34]
          +0.101*[#  36]+0.047*[#  10]+0.047*[#  11]+0.047*[#  13]+0.023*[#  37]
          +0.023*[#  38]+0.023*[#  39]+0.020*[#  24]+0.020*[#  25]+0.020*[#  26]
          +0.012*[#   6]+0.012*[#   7]+0.012*[#   8]+0.008*[#  46]+0.008*[#  47]
          +0.008*[#  49]+0.001*[#  41]+0.001*[#  42]+0.001*[#  43]
    |psi|^2 = 0.999
==== e(  26) =    16.21152 eV ==== 
     psi = 0.159*[#  10]+0.159*[#  11]+0.159*[#  13]+0.078*[#  19]+0.078*[#  20]
          +0.078*[#  22]+0.040*[#  46]+0.040*[#  47]+0.040*[#  49]+0.024*[#   9]
          +0.024*[#  12]+0.022*[#  18]+0.022*[#  21]+0.018*[#  33]+0.018*[#  34]
          +0.018*[#  36]+0.003*[#  24]+0.003*[#  25]+0.003*[#  26]+0.002*[#   2]
          +0.002*[#  45]+0.002*[#  48]+0.001*[#   6]+0.001*[#   7]+0.001*[#   8]
          +0.002*[#  37]+0.002*[#  38]+0.002*[#  39]+0.001*[#  23]+0.001*[#  31]
          
    |psi|^2 = 0.999
==== e(  27) =    16.30833 eV ==== 
     psi = 0.188*[#  10]+0.188*[#  11]+0.188*[#  13]+0.065*[#  19]+0.065*[#  20]
          +0.065*[#  22]+0.058*[#  46]+0.058*[#  47]+0.058*[#  49]+0.010*[#  24]
          +0.010*[#  25]+0.010*[#  26]+0.007*[#   6]+0.007*[#   7]+0.007*[#   8]
          +0.004*[#  37]+0.004*[#  38]+0.004*[#  39]
    |psi|^2 = 0.998
==== e(  28) =    16.30833 eV ==== 
     psi = 0.188*[#  10]+0.188*[#  11]+0.188*[#  13]+0.065*[#  19]+0.065*[#  20]
          +0.065*[#  22]+0.058*[#  46]+0.058*[#  47]+0.058*[#  49]+0.010*[#  24]
          +0.010*[#  25]+0.010*[#  26]+0.007*[#   6]+0.007*[#   7]+0.007*[#   8]
          +0.004*[#  37]+0.004*[#  38]+0.004*[#  39]
    |psi|^2 = 0.998
==== e(  29) =    16.59472 eV ==== 
     psi = 0.295*[#  18]+0.295*[#  21]+0.192*[#  32]+0.192*[#  35]+0.007*[#   9]
          +0.007*[#  12]+0.005*[#  45]+0.005*[#  48]
    |psi|^2 = 0.999
==== e(  30) =    16.72431 eV ==== 
     psi = 0.260*[#  18]+0.260*[#  21]+0.174*[#  32]+0.174*[#  35]+0.016*[#  19]
          +0.016*[#  20]+0.016*[#  22]+0.014*[#  33]+0.014*[#  34]+0.014*[#  36]
          +0.006*[#   9]+0.006*[#  12]+0.004*[#  46]+0.004*[#  47]+0.004*[#  49]
          +0.002*[#  10]+0.002*[#  11]+0.002*[#  13]+0.002*[#  45]+0.002*[#  48]
          +0.001*[#   2]
    |psi|^2 = 1.000
==== e(  31) =    17.11301 eV ==== 
     psi = 0.350*[#   9]+0.350*[#  12]+0.116*[#  32]+0.116*[#  35]+0.034*[#  18]
          +0.034*[#  21]
    |psi|^2 = 1.000
==== e(  32) =    17.23160 eV ==== 
     psi = 0.292*[#   9]+0.292*[#  12]+0.128*[#  32]+0.128*[#  35]+0.024*[#  10]
          +0.024*[#  11]+0.024*[#  13]+0.015*[#  18]+0.015*[#  21]+0.013*[#  33]
          +0.013*[#  34]+0.013*[#  36]+0.004*[#  46]+0.004*[#  47]+0.004*[#  49]
          +0.001*[#  19]+0.001*[#  20]+0.001*[#  22]
    |psi|^2 = 1.000
==== e(  33) =    19.09664 eV ==== 
     psi = 0.156*[#  46]+0.156*[#  47]+0.156*[#  49]+0.079*[#  33]+0.079*[#  34]
          +0.079*[#  36]+0.033*[#  10]+0.033*[#  11]+0.033*[#  13]+0.024*[#  19]
          +0.024*[#  20]+0.024*[#  22]+0.021*[#  24]+0.021*[#  25]+0.021*[#  26]
          +0.014*[#   6]+0.014*[#   7]+0.014*[#   8]+0.007*[#  37]+0.007*[#  38]
          +0.007*[#  39]
    |psi|^2 = 0.998
==== e(  34) =    19.09664 eV ==== 
     psi = 0.156*[#  46]+0.156*[#  47]+0.156*[#  49]+0.079*[#  33]+0.079*[#  34]
          +0.079*[#  36]+0.033*[#  10]+0.033*[#  11]+0.033*[#  13]+0.024*[#  19]
          +0.024*[#  20]+0.024*[#  22]+0.021*[#  24]+0.021*[#  25]+0.021*[#  26]
          +0.014*[#   6]+0.014*[#   7]+0.014*[#   8]+0.007*[#  37]+0.007*[#  38]
          +0.007*[#  39]
    |psi|^2 = 0.998
==== e(  35) =    19.35219 eV ==== 
     psi = 0.159*[#  46]+0.159*[#  47]+0.159*[#  49]+0.078*[#  33]+0.078*[#  34]
          +0.078*[#  36]+0.028*[#  19]+0.028*[#  20]+0.028*[#  22]+0.027*[#  10]
          +0.027*[#  11]+0.027*[#  13]+0.011*[#   2]+0.011*[#  24]+0.011*[#  25]
          +0.011*[#  26]+0.010*[#   6]+0.010*[#   7]+0.010*[#   8]+0.010*[#  23]
          +0.007*[#  45]+0.007*[#  48]+0.007*[#  18]+0.007*[#  21]+0.003*[#   9]
          +0.003*[#  12]
    |psi|^2 = 0.998
==== e(  36) =    20.02077 eV ==== 
     psi = 0.375*[#  45]+0.375*[#  48]+0.031*[#   9]+0.031*[#  12]+0.028*[#  32]
          +0.028*[#  35]+0.013*[#  10]+0.013*[#  11]+0.013*[#  13]+0.013*[#  18]
          +0.013*[#  21]+0.007*[#  37]+0.007*[#  38]+0.007*[#  39]+0.004*[#  24]
          +0.004*[#  25]+0.004*[#  26]+0.003*[#  19]+0.003*[#  20]+0.003*[#  22]
          +0.002*[#  46]+0.002*[#  47]+0.002*[#  49]+0.001*[#   6]+0.001*[#   7]
          +0.001*[#   8]+0.001*[#  23]
    |psi|^2 = 0.991

 k =  -0.3000000000  0.0000000000  0.0000000000
==== e(   1) =   -78.05972 eV ==== 
     psi = 0.961*[#  14]+0.006*[#  31]+0.006*[#  44]+0.005*[#  23]+0.003*[#   6]
          +0.003*[#   7]+0.003*[#   8]+0.003*[#  37]+0.003*[#  38]+0.003*[#  39]
          +0.002*[#   2]
    |psi|^2 = 1.000
==== e(   2) =   -69.52714 eV ==== 
     psi = 0.946*[#   1]+0.010*[#  31]+0.010*[#  44]+0.005*[#   2]+0.005*[#  37]
          +0.005*[#  38]+0.005*[#  39]+0.003*[#   6]+0.003*[#   7]+0.003*[#   8]
          +0.002*[#  24]+0.002*[#  25]+0.002*[#  26]
    |psi|^2 = 1.000
==== e(   3) =   -62.77700 eV ==== 
     psi = 0.947*[#  27]+0.011*[#   2]+0.007*[#  31]+0.006*[#   6]+0.006*[#   7]
          +0.006*[#   8]+0.004*[#  23]+0.002*[#  24]+0.002*[#  25]+0.002*[#  26]
          +0.002*[#  44]
    |psi|^2 = 1.000
==== e(   4) =   -41.32444 eV ==== 
     psi = 0.332*[#  15]+0.332*[#  16]+0.332*[#  17]
    |psi|^2 = 1.000
==== e(   5) =   -41.32389 eV ==== 
     psi = 0.332*[#  15]+0.332*[#  16]+0.332*[#  17]
    |psi|^2 = 1.000
==== e(   6) =   -41.32389 eV ==== 
     psi = 0.332*[#  15]+0.332*[#  16]+0.332*[#  17]
    |psi|^2 = 1.000
==== e(   7) =   -38.84652 eV ==== 
     psi = 0.907*[#  40]+0.016*[#   2]+0.010*[#  44]+0.009*[#   6]+0.009*[#   7]
          +0.009*[#   8]+0.007*[#  23]+0.005*[#  37]+0.005*[#  38]+0.005*[#  39]
          +0.004*[#  24]+0.004*[#  25]+0.004*[#  26]+0.003*[#  31]
    |psi|^2 = 1.000
==== e(   8) =   -35.59818 eV ==== 
     psi = 0.330*[#   3]+0.330*[#   4]+0.330*[#   5]+0.001*[#  24]+0.001*[#  25]
          +0.001*[#  26]
    |psi|^2 = 1.000
==== e(   9) =   -35.59818 eV ==== 
     psi = 0.330*[#   3]+0.330*[#   4]+0.330*[#   5]+0.001*[#  24]+0.001*[#  25]
          +0.001*[#  26]
    |psi|^2 = 1.000
==== e(  10) =   -35.59637 eV ==== 
     psi = 0.330*[#   3]+0.330*[#   4]+0.330*[#   5]+0.002*[#  44]+0.002*[#  31]
          
    |psi|^2 = 1.000
==== e(  11) =   -31.50933 eV ==== 
     psi = 0.331*[#  28]+0.331*[#  29]+0.331*[#  30]+0.001*[#   2]
    |psi|^2 = 1.000
==== e(  12) =   -31.50857 eV ==== 
     psi = 0.331*[#  28]+0.331*[#  29]+0.331*[#  30]
    |psi|^2 = 1.000
==== e(  13) =   -31.50857 eV ==== 
     psi = 0.331*[#  28]+0.331*[#  29]+0.331*[#  30]
    |psi|^2 = 1.000
==== e(  14) =   -15.13442 eV ==== 
     psi = 0.329*[#  41]+0.329*[#  42]+0.329*[#  43]+0.003*[#   2]+0.002*[#  23]
          +0.002*[#  31]
    |psi|^2 = 1.000
==== e(  15) =   -15.12978 eV ==== 
     psi = 0.328*[#  41]+0.328*[#  42]+0.328*[#  43]+0.002*[#  24]+0.002*[#  25]
          +0.002*[#  26]+0.002*[#  37]+0.002*[#  38]+0.002*[#  39]+0.001*[#   6]
          +0.001*[#   7]+0.001*[#   8]
    |psi|^2 = 1.000
==== e(  16) =   -15.12978 eV ==== 
     psi = 0.328*[#  41]+0.328*[#  42]+0.328*[#  43]+0.002*[#  24]+0.002*[#  25]
          +0.002*[#  26]+0.002*[#  37]+0.002*[#  38]+0.002*[#  39]+0.001*[#   6]
          +0.001*[#   7]+0.001*[#   8]
    |psi|^2 = 1.000
==== e(  17) =    10.15996 eV ==== 
     psi = 0.204*[#   2]+0.203*[#  31]+0.157*[#  44]+0.152*[#  23]+0.037*[#  40]
          +0.031*[#   6]+0.031*[#   7]+0.031*[#   8]+0.021*[#  37]+0.021*[#  38]
          +0.021*[#  39]+0.019*[#   1]+0.018*[#  27]+0.015*[#  14]+0.012*[#  24]
          +0.012*[#  25]+0.012*[#  26]
    |psi|^2 = 1.000
==== e(  18) =    13.47586 eV ==== 
     psi = 0.161*[#  18]+0.161*[#  21]+0.150*[#  32]+0.150*[#  35]+0.122*[#   9]
          +0.122*[#  12]+0.061*[#  45]+0.061*[#  48]
    |psi|^2 = 0.988
==== e(  19) =    13.48079 eV ==== 
     psi = 0.156*[#  18]+0.156*[#  21]+0.146*[#  32]+0.146*[#  35]+0.113*[#   9]
          +0.113*[#  12]+0.057*[#  45]+0.057*[#  48]+0.005*[#   6]+0.005*[#   7]
          +0.005*[#   8]+0.005*[#  24]+0.005*[#  25]+0.005*[#  26]+0.004*[#  37]
          +0.004*[#  38]+0.004*[#  39]+0.002*[#   2]
    |psi|^2 = 0.992
==== e(  20) =    14.37669 eV ==== 
     psi = 0.184*[#  33]+0.184*[#  34]+0.184*[#  36]+0.043*[#  46]+0.043*[#  47]
          +0.043*[#  49]+0.033*[#   9]+0.033*[#  12]+0.029*[#  18]+0.029*[#  21]
          +0.028*[#  24]+0.028*[#  25]+0.028*[#  26]+0.022*[#   2]+0.019*[#  23]
          +0.016*[#   6]+0.016*[#   7]+0.016*[#   8]+0.006*[#  19]+0.006*[#  20]
          +0.006*[#  22]
    |psi|^2 = 0.999
==== e(  21) =    14.61257 eV ==== 
     psi = 0.178*[#  19]+0.178*[#  20]+0.178*[#  22]+0.089*[#  10]+0.089*[#  11]
          +0.089*[#  13]+0.025*[#  31]+0.024*[#  37]+0.024*[#  38]+0.024*[#  39]
          +0.023*[#  32]+0.023*[#  35]+0.010*[#  45]+0.010*[#  48]+0.010*[#  44]
          +0.003*[#  18]+0.003*[#  21]+0.001*[#  23]+0.001*[#  41]+0.001*[#  42]
          +0.001*[#  43]+0.001*[#  46]+0.001*[#  47]+0.001*[#  49]
    |psi|^2 = 0.997
==== e(  22) =    14.66117 eV ==== 
     psi = 0.134*[#  33]+0.134*[#  34]+0.134*[#  36]+0.112*[#  19]+0.112*[#  20]
          +0.112*[#  22]+0.044*[#  10]+0.044*[#  11]+0.044*[#  13]+0.022*[#  46]
          +0.022*[#  47]+0.022*[#  49]+0.008*[#  24]+0.008*[#  25]+0.008*[#  26]
          +0.006*[#  37]+0.006*[#  38]+0.006*[#  39]+0.006*[#   6]+0.006*[#   7]
          +0.006*[#   8]
    |psi|^2 = 0.998
==== e(  23) =    14.66117 eV ==== 
     psi = 0.134*[#  33]+0.134*[#  34]+0.134*[#  36]+0.112*[#  19]+0.112*[#  20]
          +0.112*[#  22]+0.044*[#  10]+0.044*[#  11]+0.044*[#  13]+0.022*[#  46]
          +0.022*[#  47]+0.022*[#  49]+0.008*[#  24]+0.008*[#  25]+0.008*[#  26]
          +0.006*[#  37]+0.006*[#  38]+0.006*[#  39]+0.006*[#   6]+0.006*[#   7]
          +0.006*[#   8]
    |psi|^2 = 0.998
==== e(  24) =    15.34995 eV ==== 
     psi = 0.118*[#  19]+0.118*[#  20]+0.118*[#  22]+0.105*[#  33]+0.105*[#  34]
          +0.105*[#  36]+0.045*[#  10]+0.045*[#  11]+0.045*[#  13]+0.023*[#  37]
          +0.023*[#  38]+0.023*[#  39]+0.021*[#  24]+0.021*[#  25]+0.021*[#  26]
          +0.013*[#   6]+0.013*[#   7]+0.013*[#   8]+0.007*[#  46]+0.007*[#  47]
          +0.007*[#  49]+0.001*[#  41]+0.001*[#  42]+0.001*[#  43]
    |psi|^2 = 0.999
==== e(  25) =    15.34995 eV ==== 
     psi = 0.118*[#  19]+0.118*[#  20]+0.118*[#  22]+0.105*[#  33]+0.105*[#  34]
          +0.105*[#  36]+0.045*[#  10]+0.045*[#  11]+0.045*[#  13]+0.023*[#  37]
          +0.023*[#  38]+0.023*[#  39]+0.021*[#  24]+0.021*[#  25]+0.021*[#  26]
          +0.013*[#   6]+0.013*[#   7]+0.013*[#   8]+0.007*[#  46]+0.007*[#  47]
          +0.007*[#  49]+0.001*[#  41]+0.001*[#  42]+0.001*[#  43]
    |psi|^2 = 0.999
==== e(  26) =    16.20869 eV ==== 
     psi = 0.151*[#  10]+0.151*[#  11]+0.151*[#  13]+0.082*[#  19]+0.082*[#  20]
          +0.082*[#  22]+0.035*[#  46]+0.035*[#  47]+0.035*[#  49]+0.026*[#   9]
          +0.026*[#  12]+0.024*[#  33]+0.024*[#  34]+0.024*[#  36]+0.023*[#  18]
          +0.023*[#  21]+0.002*[#  24]+0.002*[#  25]+0.002*[#  26]+0.002*[#  45]
          +0.002*[#  48]+0.002*[#   2]+0.001*[#  31]+0.001*[#  37]+0.001*[#  38]
          +0.001*[#  39]+0.001*[#  23]
    |psi|^2 = 0.999
==== e(  27) =    16.32986 eV ==== 
     psi = 0.188*[#  10]+0.188*[#  11]+0.188*[#  13]+0.062*[#  19]+0.062*[#  20]
          +0.062*[#  22]+0.055*[#  46]+0.055*[#  47]+0.055*[#  49]+0.012*[#  24]
          +0.012*[#  25]+0.012*[#  26]+0.008*[#   6]+0.008*[#   7]+0.008*[#   8]
          +0.005*[#  37]+0.005*[#  38]+0.005*[#  39]+0.001*[#  33]+0.001*[#  34]
          +0.001*[#  36]
    |psi|^2 = 0.998
==== e(  28) =    16.32986 eV ==== 
     psi = 0.188*[#  10]+0.188*[#  11]+0.188*[#  13]+0.062*[#  19]+0.062*[#  20]
          +0.062*[#  22]+0.055*[#  46]+0.055*[#  47]+0.055*[#  49]+0.012*[#  24]
          +0.012*[#  25]+0.012*[#  26]+0.008*[#   6]+0.008*[#   7]+0.008*[#   8]
          +0.005*[#  37]+0.005*[#  38]+0.005*[#  39]+0.001*[#  33]+0.001*[#  34]
          +0.001*[#  36]
    |psi|^2 = 0.998
==== e(  29) =    16.56406 eV ==== 
     psi = 0.285*[#  18]+0.285*[#  21]+0.205*[#  32]+0.205*[#  35]+0.006*[#  45]
          +0.006*[#  48]+0.003*[#   9]+0.003*[#  12]
    |psi|^2 = 0.999
==== e(  30) =    16.74134 eV ==== 
     psi = 0.249*[#  18]+0.249*[#  21]+0.174*[#  32]+0.174*[#  35]+0.021*[#  19]
          +0.021*[#  20]+0.021*[#  22]+0.017*[#  33]+0.017*[#  34]+0.017*[#  36]
          +0.005*[#   9]+0.005*[#  12]+0.005*[#  46]+0.005*[#  47]+0.005*[#  49]
          +0.002*[#   2]+0.002*[#  10]+0.002*[#  11]+0.002*[#  13]+0.002*[#  45]
          +0.002*[#  48]
    |psi|^2 = 1.000
==== e(  31) =    17.09238 eV ==== 
     psi = 0.355*[#   9]+0.355*[#  12]+0.101*[#  32]+0.101*[#  35]+0.043*[#  18]
          +0.043*[#  21]
    |psi|^2 = 1.000
==== e(  32) =    17.24901 eV ==== 
     psi = 0.279*[#   9]+0.279*[#  12]+0.125*[#  32]+0.125*[#  35]+0.031*[#  10]
          +0.031*[#  11]+0.031*[#  13]+0.016*[#  33]+0.016*[#  34]+0.016*[#  36]
          +0.013*[#  18]+0.013*[#  21]+0.005*[#  46]+0.005*[#  47]+0.005*[#  49]
          +0.001*[#  19]+0.001*[#  20]+0.001*[#  22]+0.001*[#  23]
    |psi|^2 = 1.000
==== e(  33) =    18.96974 eV ==== 
     psi = 0.155*[#  46]+0.155*[#  47]+0.155*[#  49]+0.077*[#  33]+0.077*[#  34]
          +0.077*[#  36]+0.031*[#  10]+0.031*[#  11]+0.031*[#  13]+0.023*[#  19]
          +0.023*[#  20]+0.023*[#  22]+0.022*[#  24]+0.022*[#  25]+0.022*[#  26]
          +0.014*[#   6]+0.014*[#   7]+0.014*[#   8]+0.009*[#  37]+0.009*[#  38]
          +0.009*[#  39]
    |psi|^2 = 0.998
==== e(  34) =    18.96974 eV ==== 
     psi = 0.155*[#  46]+0.155*[#  47]+0.155*[#  49]+0.077*[#  33]+0.077*[#  34]
          +0.077*[#  36]+0.031*[#  10]+0.031*[#  11]+0.031*[#  13]+0.023*[#  19]
          +0.023*[#  20]+0.023*[#  22]+0.022*[#  24]+0.022*[#  25]+0.022*[#  26]
          +0.014*[#   6]+0.014*[#   7]+0.014*[#   8]+0.009*[#  37]+0.009*[#  38]
          +0.009*[#  39]
    |psi|^2 = 0.998
==== e(  35) =    19.31689 eV ==== 
     psi = 0.159*[#  46]+0.159*[#  47]+0.159*[#  49]+0.076*[#  33]+0.076*[#  34]
          +0.076*[#  36]+0.028*[#  19]+0.028*[#  20]+0.028*[#  22]+0.023*[#  10]
          +0.023*[#  11]+0.023*[#  13]+0.016*[#   2]+0.013*[#  23]+0.011*[#  45]
          +0.011*[#  48]+0.010*[#   6]+0.010*[#   7]+0.010*[#   8]+0.010*[#  18]
          +0.010*[#  21]+0.010*[#  24]+0.010*[#  25]+0.010*[#  26]+0.003*[#   9]
          +0.003*[#  12]+0.001*[#  37]+0.001*[#  38]+0.001*[#  39]
    |psi|^2 = 0.998
==== e(  36) =    19.92725 eV ==== 
     psi = 0.356*[#  45]+0.356*[#  48]+0.035*[#   9]+0.035*[#  12]+0.024*[#  32]
          +0.024*[#  35]+0.018*[#  10]+0.018*[#  11]+0.018*[#  13]+0.013*[#  18]
          +0.013*[#  21]+0.009*[#  37]+0.009*[#  38]+0.009*[#  39]+0.005*[#  24]
          +0.005*[#  25]+0.005*[#  26]+0.004*[#  19]+0.004*[#  20]+0.004*[#  22]
          +0.003*[#  46]+0.003*[#  47]+0.003*[#  49]+0.003*[#  23]+0.002*[#   6]
          +0.002*[#   7]+0.002*[#   8]+0.001*[#  31]+0.001*[#  33]+0.001*[#  34]
          +0.001*[#  36]
    |psi|^2 = 0.992

 k =  -0.3500000000  0.0000000000  0.0000000000
==== e(   1) =   -78.05971 eV ==== 
     psi = 0.959*[#  14]+0.006*[#  23]+0.005*[#  31]+0.005*[#  44]+0.004*[#   6]
          +0.004*[#   7]+0.004*[#   8]+0.004*[#  37]+0.004*[#  38]+0.004*[#  39]
          +0.002*[#   2]
    |psi|^2 = 1.000
==== e(   2) =   -69.52708 eV ==== 
     psi = 0.944*[#   1]+0.009*[#  31]+0.008*[#  44]+0.006*[#   2]+0.006*[#  37]
          +0.006*[#  38]+0.006*[#  39]+0.003*[#   6]+0.003*[#   7]+0.003*[#   8]
          +0.002*[#  24]+0.002*[#  25]+0.002*[#  26]
    |psi|^2 = 1.000
==== e(   3) =   -62.77701 eV ==== 
     psi = 0.945*[#  27]+0.009*[#   2]+0.007*[#  31]+0.007*[#   6]+0.007*[#   7]
          +0.007*[#   8]+0.004*[#  23]+0.003*[#  24]+0.003*[#  25]+0.003*[#  26]
          +0.001*[#  44]
    |psi|^2 = 1.000
==== e(   4) =   -41.32466 eV ==== 
     psi = 0.332*[#  15]+0.332*[#  16]+0.332*[#  17]
    |psi|^2 = 1.000
==== e(   5) =   -41.32393 eV ==== 
     psi = 0.332*[#  15]+0.332*[#  16]+0.332*[#  17]
    |psi|^2 = 1.000
==== e(   6) =   -41.32393 eV ==== 
     psi = 0.332*[#  15]+0.332*[#  16]+0.332*[#  17]
    |psi|^2 = 1.000
==== e(   7) =   -38.84646 eV ==== 
     psi = 0.902*[#  40]+0.012*[#   2]+0.012*[#  44]+0.011*[#   6]+0.011*[#   7]
          +0.011*[#   8]+0.006*[#  37]+0.006*[#  38]+0.006*[#  39]+0.005*[#  23]
          +0.005*[#  24]+0.005*[#  25]+0.005*[#  26]+0.002*[#  31]
    |psi|^2 = 1.000
==== e(   8) =   -35.59822 eV ==== 
     psi = 0.330*[#   3]+0.330*[#   4]+0.330*[#   5]+0.001*[#  24]+0.001*[#  25]
          +0.001*[#  26]+0.001*[#  37]+0.001*[#  38]+0.001*[#  39]
    |psi|^2 = 1.000
==== e(   9) =   -35.59822 eV ==== 
     psi = 0.330*[#   3]+0.330*[#   4]+0.330*[#   5]+0.001*[#  24]+0.001*[#  25]
          +0.001*[#  26]+0.001*[#  37]+0.001*[#  38]+0.001*[#  39]
    |psi|^2 = 1.000
==== e(  10) =   -35.59595 eV ==== 
     psi = 0.330*[#   3]+0.330*[#   4]+0.330*[#   5]+0.003*[#  44]+0.002*[#  31]
          
    |psi|^2 = 1.000
==== e(  11) =   -31.50952 eV ==== 
     psi = 0.331*[#  28]+0.331*[#  29]+0.331*[#  30]+0.001*[#   2]+0.001*[#  44]
          
    |psi|^2 = 1.000
==== e(  12) =   -31.50848 eV ==== 
     psi = 0.331*[#  28]+0.331*[#  29]+0.331*[#  30]
    |psi|^2 = 1.000
==== e(  13) =   -31.50848 eV ==== 
     psi = 0.331*[#  28]+0.331*[#  29]+0.331*[#  30]
    |psi|^2 = 1.000
==== e(  14) =   -15.13595 eV ==== 
     psi = 0.328*[#  41]+0.328*[#  42]+0.328*[#  43]+0.004*[#   2]+0.003*[#  23]
          +0.002*[#  31]
    |psi|^2 = 1.000
==== e(  15) =   -15.12992 eV ==== 
     psi = 0.328*[#  41]+0.328*[#  42]+0.328*[#  43]+0.002*[#  24]+0.002*[#  25]
          +0.002*[#  26]+0.002*[#  37]+0.002*[#  38]+0.002*[#  39]+0.001*[#   6]
          +0.001*[#   7]+0.001*[#   8]
    |psi|^2 = 1.000
==== e(  16) =   -15.12992 eV ==== 
     psi = 0.328*[#  41]+0.328*[#  42]+0.328*[#  43]+0.002*[#  24]+0.002*[#  25]
          +0.002*[#  26]+0.002*[#  37]+0.002*[#  38]+0.002*[#  39]+0.001*[#   6]
          +0.001*[#   7]+0.001*[#   8]
    |psi|^2 = 1.000
==== e(  17) =    10.32049 eV ==== 
     psi = 0.191*[#  31]+0.189*[#   2]+0.144*[#  23]+0.143*[#  44]+0.037*[#   6]
          +0.037*[#   7]+0.037*[#   8]+0.037*[#  40]+0.026*[#  37]+0.026*[#  38]
          +0.026*[#  39]+0.019*[#   1]+0.018*[#  27]+0.015*[#  14]+0.015*[#  24]
          +0.015*[#  25]+0.015*[#  26]+0.001*[#  41]+0.001*[#  42]+0.001*[#  43]
          
    |psi|^2 = 1.000
==== e(  18) =    13.54485 eV ==== 
     psi = 0.157*[#  18]+0.157*[#  21]+0.144*[#  32]+0.144*[#  35]+0.109*[#   9]
          +0.109*[#  12]+0.054*[#  45]+0.054*[#  48]+0.006*[#  37]+0.006*[#  38]
          +0.006*[#  39]+0.006*[#   6]+0.006*[#   7]+0.006*[#   8]+0.006*[#  24]
          +0.006*[#  25]+0.006*[#  26]+0.004*[#   2]+0.001*[#  23]
    |psi|^2 = 0.993
==== e(  19) =    13.54560 eV ==== 
     psi = 0.163*[#  18]+0.163*[#  21]+0.150*[#  32]+0.150*[#  35]+0.122*[#   9]
          +0.122*[#  12]+0.059*[#  45]+0.059*[#  48]
    |psi|^2 = 0.988
==== e(  20) =    14.24226 eV ==== 
     psi = 0.172*[#  33]+0.172*[#  34]+0.172*[#  36]+0.045*[#  46]+0.045*[#  47]
          +0.045*[#  49]+0.042*[#   9]+0.042*[#  12]+0.034*[#  18]+0.034*[#  21]
          +0.028*[#   2]+0.027*[#  24]+0.027*[#  25]+0.027*[#  26]+0.026*[#  23]
          +0.015*[#   6]+0.015*[#   7]+0.015*[#   8]+0.003*[#  19]+0.003*[#  20]
          +0.003*[#  22]
    |psi|^2 = 0.999
==== e(  21) =    14.50947 eV ==== 
     psi = 0.171*[#  19]+0.171*[#  20]+0.171*[#  22]+0.089*[#  10]+0.089*[#  11]
          +0.089*[#  13]+0.031*[#  31]+0.030*[#  32]+0.030*[#  35]+0.022*[#  37]
          +0.022*[#  38]+0.022*[#  39]+0.014*[#  44]+0.014*[#  45]+0.014*[#  48]
          +0.003*[#  18]+0.003*[#  21]+0.001*[#  41]+0.001*[#  42]+0.001*[#  43]
          +0.001*[#  23]+0.001*[#  40]
    |psi|^2 = 0.997
==== e(  22) =    14.65290 eV ==== 
     psi = 0.132*[#  33]+0.132*[#  34]+0.132*[#  36]+0.116*[#  19]+0.116*[#  20]
          +0.116*[#  22]+0.046*[#  10]+0.046*[#  11]+0.046*[#  13]+0.022*[#  46]
          +0.022*[#  47]+0.022*[#  49]+0.007*[#  24]+0.007*[#  25]+0.007*[#  26]
          +0.006*[#  37]+0.006*[#  38]+0.006*[#  39]+0.005*[#   6]+0.005*[#   7]
          +0.005*[#   8]
    |psi|^2 = 0.998
==== e(  23) =    14.65290 eV ==== 
     psi = 0.132*[#  33]+0.132*[#  34]+0.132*[#  36]+0.116*[#  19]+0.116*[#  20]
          +0.116*[#  22]+0.046*[#  10]+0.046*[#  11]+0.046*[#  13]+0.022*[#  46]
          +0.022*[#  47]+0.022*[#  49]+0.007*[#  24]+0.007*[#  25]+0.007*[#  26]
          +0.006*[#  37]+0.006*[#  38]+0.006*[#  39]+0.005*[#   6]+0.005*[#   7]
          +0.005*[#   8]
    |psi|^2 = 0.998
==== e(  24) =    15.44447 eV ==== 
     psi = 0.119*[#  19]+0.119*[#  20]+0.119*[#  22]+0.106*[#  33]+0.106*[#  34]
          +0.106*[#  36]+0.044*[#  10]+0.044*[#  11]+0.044*[#  13]+0.023*[#  37]
          +0.023*[#  38]+0.023*[#  39]+0.020*[#  24]+0.020*[#  25]+0.020*[#  26]
          +0.013*[#   6]+0.013*[#   7]+0.013*[#   8]+0.005*[#  46]+0.005*[#  47]
          +0.005*[#  49]+0.001*[#  41]+0.001*[#  42]+0.001*[#  43]
    |psi|^2 = 0.999
==== e(  25) =    15.44447 eV ==== 
     psi = 0.119*[#  19]+0.119*[#  20]+0.119*[#  22]+0.106*[#  33]+0.106*[#  34]
          +0.106*[#  36]+0.044*[#  10]+0.044*[#  11]+0.044*[#  13]+0.023*[#  37]
          +0.023*[#  38]+0.023*[#  39]+0.020*[#  24]+0.020*[#  25]+0.020*[#  26]
          +0.013*[#   6]+0.013*[#   7]+0.013*[#   8]+0.005*[#  46]+0.005*[#  47]
          +0.005*[#  49]+0.001*[#  41]+0.001*[#  42]+0.001*[#  43]
    |psi|^2 = 0.999
==== e(  26) =    16.21409 eV ==== 
     psi = 0.144*[#  10]+0.144*[#  11]+0.144*[#  13]+0.087*[#  19]+0.087*[#  20]
          +0.087*[#  22]+0.030*[#  46]+0.030*[#  47]+0.030*[#  49]+0.030*[#  33]
          +0.030*[#  34]+0.030*[#  36]+0.028*[#   9]+0.028*[#  12]+0.023*[#  18]
          +0.023*[#  21]+0.002*[#  45]+0.002*[#  48]+0.002*[#  24]+0.002*[#  25]
          +0.002*[#  26]+0.002*[#   2]+0.001*[#  31]+0.001*[#  32]+0.001*[#  35]
          +0.001*[#  23]+0.001*[#  37]+0.001*[#  38]+0.001*[#  39]
    |psi|^2 = 0.999
==== e(  27) =    16.36014 eV ==== 
     psi = 0.187*[#  10]+0.187*[#  11]+0.187*[#  13]+0.058*[#  19]+0.058*[#  20]
          +0.058*[#  22]+0.052*[#  46]+0.052*[#  47]+0.052*[#  49]+0.014*[#  24]
          +0.014*[#  25]+0.014*[#  26]+0.009*[#   6]+0.009*[#   7]+0.009*[#   8]
          +0.007*[#  37]+0.007*[#  38]+0.007*[#  39]+0.003*[#  33]+0.003*[#  34]
          +0.003*[#  36]+0.001*[#  41]+0.001*[#  42]+0.001*[#  43]
    |psi|^2 = 0.997
==== e(  28) =    16.36014 eV ==== 
     psi = 0.187*[#  10]+0.187*[#  11]+0.187*[#  13]+0.058*[#  19]+0.058*[#  20]
[...]
     psi = 0.226*[#   9]+0.226*[#  12]+0.055*[#  24]+0.055*[#  25]+0.055*[#  26]
          +0.026*[#  37]+0.026*[#  38]+0.026*[#  39]+0.025*[#  10]+0.025*[#  11]
          +0.025*[#  13]+0.023*[#  18]+0.023*[#  21]+0.016*[#  46]+0.016*[#  47]
          +0.016*[#  49]+0.014*[#  19]+0.014*[#  20]+0.014*[#  22]+0.012*[#   2]
          +0.011*[#  33]+0.011*[#  34]+0.011*[#  36]+0.006*[#  45]+0.006*[#  48]
          +0.003*[#   1]+0.003*[#   6]+0.003*[#   7]+0.003*[#   8]+0.003*[#  41]
          +0.003*[#  42]+0.003*[#  43]
    |psi|^2 = 0.993
==== e(  27) =    16.59293 eV ==== 
     psi = 0.125*[#  10]+0.125*[#  11]+0.125*[#  13]+0.074*[#  45]+0.074*[#  48]
          +0.048*[#  33]+0.048*[#  34]+0.048*[#  36]+0.033*[#  37]+0.033*[#  38]
          +0.033*[#  39]+0.022*[#   6]+0.022*[#   7]+0.022*[#   8]+0.022*[#   9]
          +0.022*[#  12]+0.018*[#  24]+0.018*[#  25]+0.018*[#  26]+0.010*[#  18]
          +0.010*[#  21]+0.007*[#  40]+0.005*[#  32]+0.005*[#  35]+0.003*[#  19]
          +0.003*[#  20]+0.003*[#  22]+0.003*[#  44]+0.002*[#  46]+0.002*[#  47]
          +0.002*[#  49]+0.002*[#   2]
    |psi|^2 = 0.995
==== e(  28) =    16.95134 eV ==== 
     psi = 0.148*[#  32]+0.148*[#  35]+0.085*[#  10]+0.085*[#  11]+0.085*[#  13]
          +0.049*[#   6]+0.049*[#   7]+0.049*[#   8]+0.045*[#  24]+0.045*[#  25]
          +0.045*[#  26]+0.025*[#  19]+0.025*[#  20]+0.025*[#  22]+0.010*[#  46]
          +0.010*[#  47]+0.010*[#  49]+0.008*[#  27]+0.006*[#  31]+0.005*[#  41]
          +0.005*[#  42]+0.005*[#  43]+0.003*[#  18]+0.003*[#  21]+0.003*[#  45]
          +0.003*[#  48]+0.002*[#  37]+0.002*[#  38]+0.002*[#  39]+0.001*[#   9]
          +0.001*[#  12]
    |psi|^2 = 0.991
==== e(  29) =    18.26682 eV ==== 
     psi = 0.292*[#  18]+0.292*[#  21]+0.074*[#  33]+0.074*[#  34]+0.074*[#  36]
          +0.042*[#  46]+0.042*[#  47]+0.042*[#  49]+0.031*[#   2]+0.005*[#  32]
          +0.005*[#  35]+0.003*[#  45]+0.003*[#  48]+0.002*[#  24]+0.002*[#  25]
          +0.002*[#  26]+0.002*[#  19]+0.002*[#  20]+0.002*[#  22]
    |psi|^2 = 0.997
==== e(  30) =    18.50832 eV ==== 
     psi = 0.188*[#  32]+0.188*[#  35]+0.126*[#  45]+0.126*[#  48]+0.053*[#  19]
          +0.053*[#  20]+0.053*[#  22]+0.052*[#  10]+0.052*[#  11]+0.052*[#  13]
          +0.005*[#  18]+0.005*[#  21]+0.005*[#  33]+0.005*[#  34]+0.005*[#  36]
          +0.003*[#   9]+0.003*[#  12]+0.003*[#  46]+0.003*[#  47]+0.003*[#  49]
          +0.001*[#   6]+0.001*[#   7]+0.001*[#   8]
    |psi|^2 = 0.990
==== e(  31) =    18.64680 eV ==== 
     psi = 0.189*[#  32]+0.189*[#  35]+0.123*[#  45]+0.123*[#  48]+0.054*[#  19]
          +0.054*[#  20]+0.054*[#  22]+0.045*[#  10]+0.045*[#  11]+0.045*[#  13]
          +0.009*[#  33]+0.009*[#  34]+0.009*[#  36]+0.009*[#   9]+0.009*[#  12]
          +0.004*[#  46]+0.004*[#  47]+0.004*[#  49]+0.002*[#  18]+0.002*[#  21]
          +0.001*[#   6]+0.001*[#   7]+0.001*[#   8]
    |psi|^2 = 0.991
==== e(  32) =    18.78717 eV ==== 
     psi = 0.203*[#   9]+0.203*[#  12]+0.102*[#  33]+0.102*[#  34]+0.102*[#  36]
          +0.052*[#  46]+0.052*[#  47]+0.052*[#  49]+0.017*[#  18]+0.017*[#  21]
          +0.010*[#   6]+0.010*[#   7]+0.010*[#   8]+0.009*[#  23]+0.007*[#  32]
          +0.007*[#  35]+0.005*[#  45]+0.005*[#  48]+0.004*[#  10]+0.004*[#  11]
          +0.004*[#  13]+0.003*[#  37]+0.003*[#  38]+0.003*[#  39]+0.002*[#  19]
          +0.002*[#  20]+0.002*[#  22]
    |psi|^2 = 0.996
==== e(  33) =    19.38331 eV ==== 
     psi = 0.106*[#  33]+0.106*[#  34]+0.106*[#  36]+0.102*[#   9]+0.102*[#  12]
          +0.065*[#  18]+0.065*[#  21]+0.035*[#  10]+0.035*[#  11]+0.035*[#  13]
          +0.026*[#  23]+0.019*[#  19]+0.019*[#  20]+0.019*[#  22]+0.017*[#   6]
          +0.017*[#   7]+0.017*[#   8]+0.017*[#  37]+0.017*[#  38]+0.017*[#  39]
          +0.010*[#  46]+0.010*[#  47]+0.010*[#  49]+0.006*[#  45]+0.006*[#  48]
          +0.002*[#  24]+0.002*[#  25]+0.002*[#  26]
    |psi|^2 = 0.999
==== e(  34) =    19.53756 eV ==== 
     psi = 0.140*[#   9]+0.140*[#  12]+0.078*[#  33]+0.078*[#  34]+0.078*[#  36]
          +0.054*[#  18]+0.054*[#  21]+0.024*[#  37]+0.024*[#  38]+0.024*[#  39]
          +0.023*[#  10]+0.023*[#  11]+0.023*[#  13]+0.019*[#  46]+0.019*[#  47]
          +0.019*[#  49]+0.016*[#  24]+0.016*[#  25]+0.016*[#  26]+0.015*[#  23]
          +0.014*[#   2]+0.013*[#  32]+0.013*[#  35]+0.012*[#   6]+0.012*[#   7]
          +0.012*[#   8]+0.010*[#  19]+0.010*[#  20]+0.010*[#  22]+0.002*[#  45]
          +0.002*[#  48]+0.001*[#  41]+0.001*[#  42]+0.001*[#  43]
    |psi|^2 = 0.998
==== e(  35) =    19.67047 eV ==== 
     psi = 0.129*[#  33]+0.129*[#  34]+0.129*[#  36]+0.097*[#   9]+0.097*[#  12]
          +0.039*[#  18]+0.039*[#  21]+0.024*[#  10]+0.024*[#  11]+0.024*[#  13]
          +0.023*[#  37]+0.023*[#  38]+0.023*[#  39]+0.022*[#  19]+0.022*[#  20]
          +0.022*[#  22]+0.019*[#   2]+0.016*[#  24]+0.016*[#  25]+0.016*[#  26]
          +0.010*[#  23]+0.009*[#   6]+0.009*[#   7]+0.009*[#   8]+0.005*[#  45]
          +0.005*[#  48]+0.002*[#  46]+0.002*[#  47]+0.002*[#  49]+0.001*[#  41]
          +0.001*[#  42]+0.001*[#  43]+0.001*[#  32]+0.001*[#  35]
    |psi|^2 = 0.998
==== e(  36) =    20.15357 eV ==== 
     psi = 0.191*[#  46]+0.191*[#  47]+0.191*[#  49]+0.041*[#  19]+0.041*[#  20]
          +0.041*[#  22]+0.036*[#  10]+0.036*[#  11]+0.036*[#  13]+0.023*[#   9]
          +0.023*[#  12]+0.017*[#  33]+0.017*[#  34]+0.017*[#  36]+0.013*[#  24]
          +0.013*[#  25]+0.013*[#  26]+0.009*[#  37]+0.009*[#  38]+0.009*[#  39]
          +0.004*[#  18]+0.004*[#  21]+0.003*[#   6]+0.003*[#   7]+0.003*[#   8]
          +0.003*[#  32]+0.003*[#  35]+0.002*[#   2]+0.001*[#  45]+0.001*[#  48]
          +0.001*[#  23]
    |psi|^2 = 0.997

 k =  -1.0000000000  0.5000000000  0.0000000000
==== e(   1) =   -76.55243 eV ==== 
     psi = 0.960*[#  14]+0.010*[#  37]+0.010*[#  38]+0.010*[#  39]+0.004*[#  23]
          +0.001*[#   6]+0.001*[#   7]+0.001*[#   8]
    |psi|^2 = 1.000
==== e(   2) =   -68.21005 eV ==== 
     psi = 0.941*[#   1]+0.014*[#  37]+0.014*[#  38]+0.014*[#  39]+0.008*[#   2]
          +0.002*[#  24]+0.002*[#  25]+0.002*[#  26]
    |psi|^2 = 1.000
==== e(   3) =   -59.71607 eV ==== 
     psi = 0.939*[#  27]+0.009*[#  31]+0.009*[#   6]+0.009*[#   7]+0.009*[#   8]
          +0.008*[#  24]+0.008*[#  25]+0.008*[#  26]
    |psi|^2 = 1.000
==== e(   4) =   -39.89580 eV ==== 
     psi = 0.321*[#  15]+0.321*[#  16]+0.321*[#  17]+0.021*[#  40]+0.002*[#   6]
          +0.002*[#   7]+0.002*[#   8]+0.002*[#  37]+0.002*[#  38]+0.002*[#  39]
          
    |psi|^2 = 1.000
==== e(   5) =   -39.87979 eV ==== 
     psi = 0.331*[#  15]+0.331*[#  16]+0.331*[#  17]+0.002*[#  37]+0.002*[#  38]
          +0.002*[#  39]
    |psi|^2 = 1.000
==== e(   6) =   -39.87931 eV ==== 
     psi = 0.331*[#  15]+0.331*[#  16]+0.331*[#  17]+0.002*[#  31]+0.001*[#   6]
          +0.001*[#   7]+0.001*[#   8]
    |psi|^2 = 1.000
==== e(   7) =   -39.22476 eV ==== 
     psi = 0.881*[#  40]+0.013*[#  24]+0.013*[#  25]+0.013*[#  26]+0.012*[#  44]
          +0.012*[#   6]+0.012*[#   7]+0.012*[#   8]+0.009*[#  15]+0.009*[#  16]
          +0.009*[#  17]+0.002*[#  37]+0.002*[#  38]+0.002*[#  39]
    |psi|^2 = 1.000
==== e(   8) =   -34.31872 eV ==== 
     psi = 0.327*[#   3]+0.327*[#   4]+0.327*[#   5]+0.005*[#  37]+0.005*[#  38]
          +0.005*[#  39]
    |psi|^2 = 1.000
==== e(   9) =   -34.31678 eV ==== 
     psi = 0.328*[#   3]+0.328*[#   4]+0.328*[#   5]+0.005*[#  31]+0.003*[#  24]
          +0.003*[#  25]+0.003*[#  26]
    |psi|^2 = 1.000
==== e(  10) =   -34.31382 eV ==== 
     psi = 0.324*[#   3]+0.324*[#   4]+0.324*[#   5]+0.006*[#  44]+0.004*[#  37]
          +0.004*[#  38]+0.004*[#  39]+0.002*[#  24]+0.002*[#  25]+0.002*[#  26]
          
    |psi|^2 = 1.000
==== e(  11) =   -28.52816 eV ==== 
     psi = 0.329*[#  28]+0.329*[#  29]+0.329*[#  30]+0.004*[#   2]+0.003*[#  24]
          +0.003*[#  25]+0.003*[#  26]
    |psi|^2 = 1.000
==== e(  12) =   -28.52672 eV ==== 
     psi = 0.329*[#  28]+0.329*[#  29]+0.329*[#  30]+0.004*[#  23]+0.003*[#   6]
          +0.003*[#   7]+0.003*[#   8]
    |psi|^2 = 1.000
==== e(  13) =   -28.52463 eV ==== 
     psi = 0.328*[#  28]+0.328*[#  29]+0.328*[#  30]+0.002*[#  24]+0.002*[#  25]
          +0.002*[#  26]+0.002*[#   6]+0.002*[#   7]+0.002*[#   8]
    |psi|^2 = 1.000
==== e(  14) =   -15.53767 eV ==== 
     psi = 0.323*[#  41]+0.323*[#  42]+0.323*[#  43]+0.005*[#   2]+0.004*[#  24]
          +0.004*[#  25]+0.004*[#  26]+0.003*[#  37]+0.003*[#  38]+0.003*[#  39]
          
    |psi|^2 = 1.000
==== e(  15) =   -15.53672 eV ==== 
     psi = 0.323*[#  41]+0.323*[#  42]+0.323*[#  43]+0.005*[#  23]+0.004*[#   6]
          +0.004*[#   7]+0.004*[#   8]+0.004*[#  37]+0.004*[#  38]+0.004*[#  39]
          
    |psi|^2 = 1.000
==== e(  16) =   -15.53001 eV ==== 
     psi = 0.325*[#  41]+0.325*[#  42]+0.325*[#  43]+0.004*[#  24]+0.004*[#  25]
          +0.004*[#  26]+0.003*[#   6]+0.003*[#   7]+0.003*[#   8]
    |psi|^2 = 1.000
==== e(  17) =    13.72967 eV ==== 
     psi = 0.287*[#  23]+0.094*[#   9]+0.094*[#  12]+0.070*[#  37]+0.070*[#  38]
          +0.070*[#  39]+0.046*[#  46]+0.046*[#  47]+0.046*[#  49]+0.035*[#  33]
          +0.035*[#  34]+0.035*[#  36]+0.012*[#   6]+0.012*[#   7]+0.012*[#   8]
          +0.008*[#  14]+0.005*[#  41]+0.005*[#  42]+0.005*[#  43]+0.003*[#  18]
          +0.003*[#  21]
    |psi|^2 = 0.995
==== e(  18) =    13.76949 eV ==== 
     psi = 0.206*[#  31]+0.092*[#  45]+0.092*[#  48]+0.053*[#  19]+0.053*[#  20]
          +0.053*[#  22]+0.050*[#  24]+0.050*[#  25]+0.050*[#  26]+0.046*[#   6]
          +0.046*[#   7]+0.046*[#   8]+0.044*[#  10]+0.044*[#  11]+0.044*[#  13]
          +0.012*[#  27]+0.002*[#  32]+0.002*[#  35]+0.002*[#   3]+0.002*[#   4]
          +0.002*[#   5]+0.001*[#  41]+0.001*[#  42]+0.001*[#  43]
    |psi|^2 = 0.995
==== e(  19) =    13.91143 eV ==== 
     psi = 0.250*[#   2]+0.118*[#  18]+0.118*[#  21]+0.068*[#  37]+0.068*[#  38]
          +0.068*[#  39]+0.046*[#  46]+0.046*[#  47]+0.046*[#  49]+0.034*[#  33]
          +0.034*[#  34]+0.034*[#  36]+0.010*[#  24]+0.010*[#  25]+0.010*[#  26]
          +0.009*[#   1]+0.004*[#  41]+0.004*[#  42]+0.004*[#  43]+0.003*[#   9]
          +0.003*[#  12]
    |psi|^2 = 0.996
==== e(  20) =    14.49882 eV ==== 
     psi = 0.180*[#  44]+0.092*[#  32]+0.092*[#  35]+0.068*[#  19]+0.068*[#  20]
          +0.068*[#  22]+0.050*[#  10]+0.050*[#  11]+0.050*[#  13]+0.039*[#  24]
          +0.039*[#  25]+0.039*[#  26]+0.036*[#   6]+0.036*[#   7]+0.036*[#   8]
          +0.021*[#  40]+0.006*[#  37]+0.006*[#  38]+0.006*[#  39]+0.003*[#  45]
          +0.003*[#  48]+0.002*[#   3]+0.002*[#   4]+0.002*[#   5]
    |psi|^2 = 0.997
==== e(  21) =    16.04877 eV ==== 
     psi = 0.263*[#  19]+0.263*[#  20]+0.263*[#  22]+0.040*[#  33]+0.040*[#  34]
          +0.040*[#  36]+0.024*[#  46]+0.024*[#  47]+0.024*[#  49]+0.002*[#  18]
          +0.002*[#  21]+0.002*[#   2]+0.001*[#   9]+0.001*[#  12]
    |psi|^2 = 0.991
==== e(  22) =    16.20348 eV ==== 
     psi = 0.348*[#  18]+0.348*[#  21]+0.042*[#   6]+0.042*[#   7]+0.042*[#   8]
          +0.021*[#  37]+0.021*[#  38]+0.021*[#  39]+0.014*[#  33]+0.014*[#  34]
          +0.014*[#  36]+0.012*[#   9]+0.012*[#  12]+0.007*[#  23]+0.006*[#  46]
          +0.006*[#  47]+0.006*[#  49]+0.003*[#  10]+0.003*[#  11]+0.003*[#  13]
          +0.002*[#  14]+0.002*[#  41]+0.002*[#  42]+0.002*[#  43]
    |psi|^2 = 0.993
==== e(  23) =    16.23085 eV ==== 
     psi = 0.151*[#  19]+0.151*[#  20]+0.151*[#  22]+0.095*[#  46]+0.095*[#  47]
          +0.095*[#  49]+0.073*[#  10]+0.073*[#  11]+0.073*[#  13]+0.009*[#  24]
          +0.009*[#  25]+0.009*[#  26]+0.003*[#  32]+0.003*[#  35]
    |psi|^2 = 0.994
==== e(  24) =    16.30710 eV ==== 
     psi = 0.159*[#  19]+0.159*[#  20]+0.159*[#  22]+0.066*[#  33]+0.066*[#  34]
          +0.066*[#  36]+0.040*[#  45]+0.040*[#  48]+0.024*[#  24]+0.024*[#  25]
          +0.024*[#  26]+0.021*[#  37]+0.021*[#  38]+0.021*[#  39]+0.021*[#  10]
          +0.021*[#  11]+0.021*[#  13]+0.008*[#   6]+0.008*[#   7]+0.008*[#   8]
          +0.007*[#  40]+0.006*[#  44]
    |psi|^2 = 0.995
==== e(  25) =    16.44412 eV ==== 
     psi = 0.241*[#  10]+0.241*[#  11]+0.241*[#  13]+0.045*[#  33]+0.045*[#  34]
          +0.045*[#  36]+0.038*[#  46]+0.038*[#  47]+0.038*[#  49]+0.005*[#  18]
          +0.005*[#  21]+0.003*[#  23]+0.002*[#   6]+0.002*[#   7]+0.002*[#   8]
          
    |psi|^2 = 0.993
==== e(  26) =    16.53960 eV ==== 
     psi = 0.283*[#   9]+0.283*[#  12]+0.065*[#  24]+0.065*[#  25]+0.065*[#  26]
          +0.028*[#  37]+0.028*[#  38]+0.028*[#  39]+0.021*[#  18]+0.021*[#  21]
          +0.016*[#   2]+0.014*[#  46]+0.014*[#  47]+0.014*[#  49]+0.009*[#  33]
          +0.009*[#  34]+0.009*[#  36]+0.004*[#   1]+0.003*[#  41]+0.003*[#  42]
          +0.003*[#  43]+0.001*[#  19]+0.001*[#  20]+0.001*[#  22]
    |psi|^2 = 0.993
==== e(  27) =    16.56928 eV ==== 
     psi = 0.124*[#  10]+0.124*[#  11]+0.124*[#  13]+0.110*[#  45]+0.110*[#  48]
          +0.042*[#  37]+0.042*[#  38]+0.042*[#  39]+0.041*[#  33]+0.041*[#  34]
          +0.041*[#  36]+0.026*[#   6]+0.026*[#   7]+0.026*[#   8]+0.017*[#  24]
          +0.017*[#  25]+0.017*[#  26]+0.009*[#  40]+0.005*[#  44]+0.001*[#   3]
          +0.001*[#   4]+0.001*[#   5]+0.001*[#  32]+0.001*[#  35]
    |psi|^2 = 0.996
==== e(  28) =    16.95341 eV ==== 
     psi = 0.163*[#  32]+0.163*[#  35]+0.083*[#  10]+0.083*[#  11]+0.083*[#  13]
          +0.049*[#   6]+0.049*[#   7]+0.049*[#   8]+0.045*[#  24]+0.045*[#  25]
          +0.045*[#  26]+0.026*[#  19]+0.026*[#  20]+0.026*[#  22]+0.008*[#  27]
          +0.007*[#  31]+0.007*[#  46]+0.007*[#  47]+0.007*[#  49]+0.005*[#  41]
          +0.005*[#  42]+0.005*[#  43]
    |psi|^2 = 0.991
==== e(  29) =    18.26234 eV ==== 
     psi = 0.306*[#  18]+0.306*[#  21]+0.074*[#  33]+0.074*[#  34]+0.074*[#  36]
          +0.042*[#  46]+0.042*[#  47]+0.042*[#  49]+0.032*[#   2]+0.001*[#  24]
          +0.001*[#  25]+0.001*[#  26]
    |psi|^2 = 0.997
==== e(  30) =    18.56472 eV ==== 
     psi = 0.203*[#  32]+0.203*[#  35]+0.115*[#  45]+0.115*[#  48]+0.055*[#  10]
          +0.055*[#  11]+0.055*[#  13]+0.055*[#  19]+0.055*[#  20]+0.055*[#  22]
          +0.005*[#  46]+0.005*[#  47]+0.005*[#  49]+0.002*[#   6]+0.002*[#   7]
          +0.002*[#   8]
    |psi|^2 = 0.989
==== e(  31) =    18.57363 eV ==== 
     psi = 0.181*[#  32]+0.181*[#  35]+0.141*[#  45]+0.141*[#  48]+0.058*[#  19]
          +0.058*[#  20]+0.058*[#  22]+0.046*[#  10]+0.046*[#  11]+0.046*[#  13]
          +0.009*[#  33]+0.009*[#  34]+0.009*[#  36]+0.001*[#   6]+0.001*[#   7]
          +0.001*[#   8]
    |psi|^2 = 0.991
==== e(  32) =    18.78624 eV ==== 
     psi = 0.225*[#   9]+0.225*[#  12]+0.103*[#  33]+0.103*[#  34]+0.103*[#  36]
          +0.052*[#  46]+0.052*[#  47]+0.052*[#  49]+0.012*[#  18]+0.012*[#  21]
          +0.011*[#  23]+0.009*[#   6]+0.009*[#   7]+0.009*[#   8]+0.003*[#  37]
          +0.003*[#  38]+0.003*[#  39]+0.002*[#  10]+0.002*[#  11]+0.002*[#  13]
          
    |psi|^2 = 0.996
==== e(  33) =    19.51513 eV ==== 
     psi = 0.163*[#   9]+0.163*[#  12]+0.118*[#  18]+0.118*[#  21]+0.055*[#  23]
          +0.041*[#  37]+0.041*[#  38]+0.041*[#  39]+0.041*[#   6]+0.041*[#   7]
          +0.041*[#   8]+0.030*[#  33]+0.030*[#  34]+0.030*[#  36]+0.008*[#  46]
          +0.008*[#  47]+0.008*[#  49]+0.003*[#  10]+0.003*[#  11]+0.003*[#  13]
          +0.002*[#  14]+0.002*[#  41]+0.002*[#  42]+0.002*[#  43]
    |psi|^2 = 0.998
==== e(  34) =    19.52588 eV ==== 
     psi = 0.208*[#  33]+0.208*[#  34]+0.208*[#  36]+0.079*[#  10]+0.079*[#  11]
          +0.079*[#  13]+0.036*[#  19]+0.036*[#  20]+0.036*[#  22]+0.004*[#  32]
          +0.004*[#  35]+0.003*[#  24]+0.003*[#  25]+0.003*[#  26]+0.002*[#  45]
          +0.002*[#  48]+0.002*[#   6]+0.002*[#   7]+0.002*[#   8]
    |psi|^2 = 0.999
==== e(  35) =    19.63175 eV ==== 
     psi = 0.175*[#   9]+0.175*[#  12]+0.089*[#  33]+0.089*[#  34]+0.089*[#  36]
          +0.048*[#  18]+0.048*[#  21]+0.037*[#   2]+0.035*[#  24]+0.035*[#  25]
          +0.035*[#  26]+0.032*[#  37]+0.032*[#  38]+0.032*[#  39]+0.010*[#  19]
          +0.010*[#  20]+0.010*[#  22]+0.002*[#   1]+0.002*[#  46]+0.002*[#  47]
          +0.002*[#  49]+0.002*[#  41]+0.002*[#  42]+0.002*[#  43]
    |psi|^2 = 0.997
==== e(  36) =    20.10300 eV ==== 
     psi = 0.212*[#  46]+0.212*[#  47]+0.212*[#  49]+0.070*[#  10]+0.070*[#  11]
          +0.070*[#  13]+0.040*[#  19]+0.040*[#  20]+0.040*[#  22]+0.006*[#  24]
          +0.006*[#  25]+0.006*[#  26]+0.003*[#   6]+0.003*[#   7]+0.003*[#   8]
          +0.001*[#  32]+0.001*[#  35]
    |psi|^2 = 0.997

Lowdin Charges: 

     Atom #   1: total charge =  16.3946, s =  2.4566, p =  7.0434, d =  6.8947, 
                 spin up      =   8.7785, s =  1.2178, 
                 spin up      =   8.7785, p =  3.4844, pz=  1.1615, px=  1.1615, py=  1.1615, 
                 spin up      =   8.7785, d =  4.0763, dz2=  0.8376, dxz=  0.8004, dyz=  0.8004, dx2-y2=  0.8376, dxy=  0.8004, 
                 spin down    =   7.6162, s =  1.2388, 
                 spin down    =   7.6162, p =  3.5590, pz=  1.1863, px=  1.1863, py=  1.1863, 
                 spin down    =   7.6162, d =  2.8184, dz2=  0.3260, dxz=  0.7221, dyz=  0.7221, dx2-y2=  0.3260, dxy=  0.7221, 
                 polarization =   1.1623, s = -0.0211, p = -0.0746, d =  1.2579, 
     Atom #   2: total charge =  17.3248, s =  2.4346, p =  7.1863, d =  7.7039, 
                 spin up      =   9.1884, s =  1.2035, 
                 spin up      =   9.1884, p =  3.5335, pz=  1.1778, px=  1.1778, py=  1.1778, 
                 spin up      =   9.1884, d =  4.4514, dz2=  0.9043, dxz=  0.8809, dyz=  0.8809, dx2-y2=  0.9043, dxy=  0.8809, 
                 spin down    =   8.1364, s =  1.2310, 
                 spin down    =   8.1364, p =  3.6529, pz=  1.2176, px=  1.2176, py=  1.2176, 
                 spin down    =   8.1364, d =  3.2525, dz2=  0.4437, dxz=  0.7884, dyz=  0.7884, dx2-y2=  0.4437, dxy=  0.7884, 
                 polarization =   1.0520, s = -0.0275, p = -0.1194, d =  1.1989, 
     Atom #   3: total charge =  15.2751, s =  2.3958, p =  7.2079, d =  5.6714, 
                 spin up      =   8.9842, s =  1.2046, 
                 spin up      =   8.9842, p =  3.5725, pz=  1.1908, px=  1.1908, py=  1.1908, 
                 spin up      =   8.9842, d =  4.2071, dz2=  0.9011, dxz=  0.8016, dyz=  0.8016, dx2-y2=  0.9011, dxy=  0.8016, 
                 spin down    =   6.2909, s =  1.1912, 
                 spin down    =   6.2909, p =  3.6354, pz=  1.2118, px=  1.2118, py=  1.2118, 
                 spin down    =   6.2909, d =  1.4643, dz2=  0.2453, dxz=  0.3246, dyz=  0.3246, dx2-y2=  0.2453, dxy=  0.3246, 
                 polarization =   2.6933, s =  0.0133, p = -0.0629, d =  2.7428, 
     Atom #   4: total charge =  10.6251, s =  2.2638, p =  5.9381, d =  2.4232, 
                 spin up      =   5.0565, s =  1.1172, 
                 spin up      =   5.0565, p =  2.9674, pz=  0.9891, px=  0.9891, py=  0.9891, 
                 spin up      =   5.0565, d =  0.9719, dz2=  0.1584, dxz=  0.2183, dyz=  0.2183, dx2-y2=  0.1584, dxy=  0.2183, 
                 spin down    =   5.5686, s =  1.1466, 
                 spin down    =   5.5686, p =  2.9707, pz=  0.9902, px=  0.9902, py=  0.9902, 
                 spin down    =   5.5686, d =  1.4513, dz2=  0.2462, dxz=  0.3196, dyz=  0.3196, dx2-y2=  0.2462, dxy=  0.3196, 
                 polarization =  -0.5121, s = -0.0294, p = -0.0034, d = -0.4794, 
     Spilling Parameter:   0.0063

     PROJWFC      :      5.72s CPU      6.26s WALL


   This run was terminated on:   2:11:20   1Sep2025            

=------------------------------------------------------------------------------=
   JOB DONE.
=------------------------------------------------------------------------------=
Note: The following floating-point exceptions are signalling: IEEE_INVALID_FLAG IEEE_DENORMAL
