
     Program PWSCF v.7.0 starts on  1Sep2025 at  0:51:42 

     This program is part of the open-source Quantum ESPRESSO suite
     for quantum simulation of materials; please cite
         "P. Giannozzi et al., J. Phys.:Condens. Matter 21 395502 (2009);
         "P. Giannozzi et al., J. Phys.:Condens. Matter 29 465901 (2017);
         "P. Giannozzi et al., J. Chem. Phys. 152 154105 (2020);
          URL http://www.quantum-espresso.org", 
     in publications or presentations arising from this work. More details at
     http://www.quantum-espresso.org/quote

     Serial version
     1542 MiB available memory on the printing compute node when the environment starts

     Waiting for input...
     Reading input from standard input

     Current dimensions of program PWSCF are:
     Max number of different atomic species (ntypx) = 10
     Max number of k-points (npk) =  40000
     Max angular momentum in pseudopotentials (lmaxx) =  4
     file Fe.UPF: wavefunction(s)  3D renormalized

     G-vector sticks info
     --------------------
     sticks:   dense  smooth     PW     G-vecs:    dense   smooth      PW
     Sum        1981    1003    301                58383    20539    3479

     Using Slab Decomposition



     bravais-lattice index     =            2
     lattice parameter (alat)  =      10.9580  a.u.
     unit-cell volume          =     328.9530 (a.u.)^3
     number of atoms/cell      =            4
     number of atomic types    =            4
     number of electrons       =        60.00
     number of Kohn-Sham states=           36
     kinetic-energy cutoff     =      60.0000  Ry
     charge density cutoff     =     480.0000  Ry
     scf convergence threshold =      1.0E-08
     mixing beta               =       0.7000
     number of iterations used =            8  plain     mixing
     Exchange-correlation=  SLA  PW   PBX  PBC
                           (   1   4   3   4   0   0   0)

     celldm(1)=  10.958000  celldm(2)=   0.000000  celldm(3)=   0.000000
     celldm(4)=   0.000000  celldm(5)=   0.000000  celldm(6)=   0.000000

     crystal axes: (cart. coord. in units of alat)
               a(1) = (  -0.500000   0.000000   0.500000 )  
               a(2) = (   0.000000   0.500000   0.500000 )  
               a(3) = (  -0.500000   0.500000   0.000000 )  

     reciprocal axes: (cart. coord. in units 2 pi/alat)
               b(1) = ( -1.000000 -1.000000  1.000000 )  
               b(2) = (  1.000000  1.000000  1.000000 )  
               b(3) = ( -1.000000  1.000000 -1.000000 )  


     PseudoPot. # 1 for Co read from file:
     /home/washingmachine/Galaxy/CoFeMnTi-1/Pseudo/Co.UPF
     MD5 check sum: 5f91765df6ddd3222702df6e7b74a16d
     Pseudo is Ultrasoft + core correction, Zval = 17.0
     Generated by new atomic code, or converted to UPF format
     Using radial grid of  863 points,  6 beta functions with: 
                l(1) =   0
                l(2) =   0
                l(3) =   1
                l(4) =   1
                l(5) =   2
                l(6) =   2
     Q(r) pseudized with  8 coefficients,  rinner =    1.200   1.200   1.200
                                                       1.200   1.200

     PseudoPot. # 2 for Fe read from file:
     /home/washingmachine/Galaxy/CoFeMnTi-1/Pseudo/Fe.UPF
     MD5 check sum: e86618425769142926afa95317d90200
     Pseudo is Projector augmented-wave + core cor, Zval = 16.0
     Generated using "atomic" code by A. Dal Corso  v.5.0.99 svn rev. 10869
     Shape of augmentation charge: PSQ
     Using radial grid of 1191 points,  6 beta functions with: 
                l(1) =   0
                l(2) =   0
                l(3) =   1
                l(4) =   1
                l(5) =   2
                l(6) =   2
     Q(r) pseudized with 0 coefficients 


     PseudoPot. # 3 for Mn read from file:
     /home/washingmachine/Galaxy/CoFeMnTi-1/Pseudo/Mn.UPF
     MD5 check sum: 82ef2b46521d7a7d9e736dc3972e4928
     Pseudo is Ultrasoft + core correction, Zval = 15.0
     Generated by new atomic code, or converted to UPF format
     Using radial grid of  859 points,  6 beta functions with: 
                l(1) =   0
                l(2) =   0
                l(3) =   1
                l(4) =   1
                l(5) =   2
                l(6) =   2
     Q(r) pseudized with  8 coefficients,  rinner =    0.950   0.950   0.950
                                                       0.950   0.950

     PseudoPot. # 4 for Ti read from file:
     /home/washingmachine/Galaxy/CoFeMnTi-1/Pseudo/Ti.UPF
     MD5 check sum: 88a00a6731bd790ddea75d31a80cb452
     Pseudo is Ultrasoft + core correction, Zval = 12.0
     Generated by new atomic code, or converted to UPF format
     Using radial grid of  851 points,  6 beta functions with: 
                l(1) =   0
                l(2) =   0
                l(3) =   1
                l(4) =   1
                l(5) =   2
                l(6) =   2
     Q(r) pseudized with  6 coefficients,  rinner =    1.000   1.000   1.000
                                                       1.000   1.000

     atomic species   valence    mass     pseudopotential
        Co            17.00    58.93300     Co( 1.00)
        Fe            16.00    55.84500     Fe( 1.00)
        Mn            15.00    54.93800     Mn( 1.00)
        Ti            12.00    47.86700     Ti( 1.00)

     Starting magnetic structure 
     atomic species   magnetization
        Co           1.000
        Fe           1.000
        Mn           1.000
        Ti           0.100

     24 Sym. Ops. (no inversion) found



   Cartesian axes

     site n.     atom                  positions (alat units)
         1           Fe  tau(   1) = (   0.0000000   0.0000000   0.0000000  )
         2           Co  tau(   2) = (  -0.5000000   0.5000000   0.5000000  )
         3           Mn  tau(   3) = (  -0.2500000   0.2500000   0.2500000  )
         4           Ti  tau(   4) = (  -0.7500000   0.7500000   0.7500000  )

     number of k points=    72  Marzari-Vanderbilt smearing, width (Ry)=  0.0200
                       cart. coord. in units 2pi/alat
        k(    1) = (   0.0000000   0.0000000   0.0000000), wk =   0.0005787
        k(    2) = (  -0.0833333   0.0833333  -0.0833333), wk =   0.0046296
        k(    3) = (  -0.1666667   0.1666667  -0.1666667), wk =   0.0046296
        k(    4) = (  -0.2500000   0.2500000  -0.2500000), wk =   0.0046296
        k(    5) = (  -0.3333333   0.3333333  -0.3333333), wk =   0.0046296
        k(    6) = (  -0.4166667   0.4166667  -0.4166667), wk =   0.0046296
        k(    7) = (   0.5000000  -0.5000000   0.5000000), wk =   0.0023148
        k(    8) = (   0.0000000   0.1666667   0.0000000), wk =   0.0034722
        k(    9) = (  -0.0833333   0.2500000  -0.0833333), wk =   0.0138889
        k(   10) = (  -0.1666667   0.3333333  -0.1666667), wk =   0.0138889
        k(   11) = (  -0.2500000   0.4166667  -0.2500000), wk =   0.0138889
        k(   12) = (  -0.3333333   0.5000000  -0.3333333), wk =   0.0138889
        k(   13) = (   0.5833333  -0.4166667   0.5833333), wk =   0.0138889
        k(   14) = (   0.5000000  -0.3333333   0.5000000), wk =   0.0138889
        k(   15) = (   0.4166667  -0.2500000   0.4166667), wk =   0.0138889
        k(   16) = (   0.3333333  -0.1666667   0.3333333), wk =   0.0138889
        k(   17) = (   0.2500000  -0.0833333   0.2500000), wk =   0.0138889
        k(   18) = (   0.1666667  -0.0000000   0.1666667), wk =   0.0069444
        k(   19) = (   0.0000000   0.3333333   0.0000000), wk =   0.0034722
        k(   20) = (  -0.0833333   0.4166667  -0.0833333), wk =   0.0138889
        k(   21) = (  -0.1666667   0.5000000  -0.1666667), wk =   0.0138889
        k(   22) = (  -0.2500000   0.5833333  -0.2500000), wk =   0.0138889
        k(   23) = (   0.6666667  -0.3333333   0.6666667), wk =   0.0138889
        k(   24) = (   0.5833333  -0.2500000   0.5833333), wk =   0.0138889
        k(   25) = (   0.5000000  -0.1666667   0.5000000), wk =   0.0138889
        k(   26) = (   0.4166667  -0.0833333   0.4166667), wk =   0.0138889
        k(   27) = (   0.3333333   0.0000000   0.3333333), wk =   0.0069444
        k(   28) = (   0.0000000   0.5000000   0.0000000), wk =   0.0034722
        k(   29) = (  -0.0833333   0.5833333  -0.0833333), wk =   0.0138889
        k(   30) = (  -0.1666667   0.6666667  -0.1666667), wk =   0.0138889
        k(   31) = (   0.7500000  -0.2500000   0.7500000), wk =   0.0138889
        k(   32) = (   0.6666667  -0.1666667   0.6666667), wk =   0.0138889
        k(   33) = (   0.5833333  -0.0833333   0.5833333), wk =   0.0138889
        k(   34) = (   0.5000000   0.0000000   0.5000000), wk =   0.0069444
        k(   35) = (   0.0000000   0.6666667   0.0000000), wk =   0.0034722
        k(   36) = (  -0.0833333   0.7500000  -0.0833333), wk =   0.0138889
        k(   37) = (   0.8333333  -0.1666667   0.8333333), wk =   0.0138889
        k(   38) = (   0.7500000  -0.0833333   0.7500000), wk =   0.0138889
        k(   39) = (   0.6666667  -0.0000000   0.6666667), wk =   0.0069444
        k(   40) = (   0.0000000   0.8333333   0.0000000), wk =   0.0034722
        k(   41) = (   0.9166667  -0.0833333   0.9166667), wk =   0.0138889
        k(   42) = (   0.8333333   0.0000000   0.8333333), wk =   0.0069444
        k(   43) = (   0.0000000  -1.0000000   0.0000000), wk =   0.0017361
        k(   44) = (  -0.1666667   0.3333333   0.0000000), wk =   0.0138889
        k(   45) = (  -0.2500000   0.4166667  -0.0833333), wk =   0.0277778
        k(   46) = (  -0.3333333   0.5000000  -0.1666667), wk =   0.0277778
        k(   47) = (   0.5833333  -0.4166667   0.7500000), wk =   0.0277778
        k(   48) = (   0.5000000  -0.3333333   0.6666667), wk =   0.0138889
        k(   49) = (  -0.1666667   0.5000000   0.0000000), wk =   0.0138889
        k(   50) = (  -0.2500000   0.5833333  -0.0833333), wk =   0.0277778
        k(   51) = (   0.6666667  -0.3333333   0.8333333), wk =   0.0277778
        k(   52) = (   0.5833333  -0.2500000   0.7500000), wk =   0.0277778
        k(   53) = (   0.5000000  -0.1666667   0.6666667), wk =   0.0277778
        k(   54) = (   0.4166667  -0.0833333   0.5833333), wk =   0.0277778
        k(   55) = (   0.3333333   0.0000000   0.5000000), wk =   0.0138889
        k(   56) = (  -0.1666667   0.6666667  -0.0000000), wk =   0.0138889
        k(   57) = (   0.7500000  -0.2500000   0.9166667), wk =   0.0277778
        k(   58) = (   0.6666667  -0.1666667   0.8333333), wk =   0.0277778
        k(   59) = (   0.5833333  -0.0833333   0.7500000), wk =   0.0277778
        k(   60) = (   0.5000000   0.0000000   0.6666667), wk =   0.0138889
        k(   61) = (   0.8333333  -0.1666667   1.0000000), wk =   0.0138889
        k(   62) = (   0.7500000  -0.0833333   0.9166667), wk =   0.0277778
        k(   63) = (   0.6666667   0.0000000   0.8333333), wk =   0.0138889
        k(   64) = (  -0.1666667  -1.0000000  -0.0000000), wk =   0.0069444
        k(   65) = (   0.6666667  -0.3333333   1.0000000), wk =   0.0138889
        k(   66) = (   0.5833333  -0.2500000   0.9166667), wk =   0.0277778
        k(   67) = (   0.5000000  -0.1666667   0.8333333), wk =   0.0138889
        k(   68) = (   0.6666667  -0.1666667   1.0000000), wk =   0.0138889
        k(   69) = (   0.5833333  -0.0833333   0.9166667), wk =   0.0277778
        k(   70) = (   0.5000000   0.0000000   0.8333333), wk =   0.0138889
        k(   71) = (  -0.3333333  -1.0000000   0.0000000), wk =   0.0069444
        k(   72) = (  -0.5000000  -1.0000000   0.0000000), wk =   0.0034722

     Dense  grid:    58383 G-vectors     FFT dimensions: (  60,  60,  60)

     Smooth grid:    20539 G-vectors     FFT dimensions: (  40,  40,  40)

     Estimated max dynamical RAM per process >     466.14 MB

     Check: negative core charge=   -0.000046
     Generating pointlists ...
     new r_m :   0.1786 (alat units)  1.9573 (a.u.) for type    1
     new r_m :   0.1786 (alat units)  1.9573 (a.u.) for type    2
     new r_m :   0.1786 (alat units)  1.9573 (a.u.) for type    3
     new r_m :   0.1786 (alat units)  1.9573 (a.u.) for type    4

     Initial potential from superposition of free atoms

     starting charge      57.4994, renormalised to      60.0000

     negative rho (up, down):  8.265E-04 7.505E-04
     Starting wfcs are   49 randomized atomic wfcs

     total cpu time spent up to now is       14.5 secs

     Self-consistent Calculation

     iteration #  1     ecut=    60.00 Ry     beta= 0.70
     Davidson diagonalization with overlap
     ethr =  1.00E-02,  avg # of iterations =  3.9

     negative rho (up, down):  0.000E+00 2.938E-04

     total cpu time spent up to now is       46.1 secs

     total energy              =    -938.92861435 Ry
     estimated scf accuracy    <      40.42720843 Ry

     total magnetization       =    12.00 Bohr mag/cell
     absolute magnetization    =    13.57 Bohr mag/cell

     iteration #  2     ecut=    60.00 Ry     beta= 0.70
     Davidson diagonalization with overlap
     ethr =  1.00E-02,  avg # of iterations =  5.8

     negative rho (up, down):  0.000E+00 5.575E-06

     total cpu time spent up to now is       88.4 secs

     total energy              =    -939.73552910 Ry
     estimated scf accuracy    <     142.74551357 Ry

     total magnetization       =     1.18 Bohr mag/cell
     absolute magnetization    =     1.39 Bohr mag/cell

     iteration #  3     ecut=    60.00 Ry     beta= 0.70
     Davidson diagonalization with overlap
     ethr =  1.00E-02,  avg # of iterations =  3.4

     negative rho (up, down):  3.863E-05 2.067E-05

     total cpu time spent up to now is      121.4 secs

     total energy              =    -953.43567631 Ry
     estimated scf accuracy    <      19.71744930 Ry

     total magnetization       =     4.16 Bohr mag/cell
     absolute magnetization    =     4.49 Bohr mag/cell

     iteration #  4     ecut=    60.00 Ry     beta= 0.70
     Davidson diagonalization with overlap
     ethr =  1.00E-02,  avg # of iterations =  3.5

     negative rho (up, down):  1.471E-03 1.445E-03

     total cpu time spent up to now is      151.3 secs

     total energy              =    -955.56423562 Ry
     estimated scf accuracy    <      36.24421355 Ry

     total magnetization       =     5.83 Bohr mag/cell
     absolute magnetization    =     6.07 Bohr mag/cell

     iteration #  5     ecut=    60.00 Ry     beta= 0.70
     Davidson diagonalization with overlap
     ethr =  1.00E-02,  avg # of iterations =  5.1

     negative rho (up, down):  1.152E-04 1.897E-04

     total cpu time spent up to now is      184.6 secs

     total energy              =    -955.32914684 Ry
     estimated scf accuracy    <      33.46645072 Ry

     total magnetization       =     4.04 Bohr mag/cell
     absolute magnetization    =     4.47 Bohr mag/cell

     iteration #  6     ecut=    60.00 Ry     beta= 0.70
     Davidson diagonalization with overlap
     ethr =  1.00E-02,  avg # of iterations =  4.5

     negative rho (up, down):  9.344E-05 1.124E-04

     total cpu time spent up to now is      212.7 secs

     total energy              =    -956.97232241 Ry
     estimated scf accuracy    <      15.55464898 Ry

     total magnetization       =     0.84 Bohr mag/cell
     absolute magnetization    =     1.62 Bohr mag/cell

     iteration #  7     ecut=    60.00 Ry     beta= 0.70
     Davidson diagonalization with overlap
     ethr =  1.00E-02,  avg # of iterations =  2.4

     negative rho (up, down):  1.987E-04 1.191E-04

     total cpu time spent up to now is      236.8 secs

     total energy              =    -958.03588396 Ry
     estimated scf accuracy    <       3.04874328 Ry

     total magnetization       =     2.32 Bohr mag/cell
     absolute magnetization    =     2.84 Bohr mag/cell

     iteration #  8     ecut=    60.00 Ry     beta= 0.70
     Davidson diagonalization with overlap
     ethr =  5.08E-03,  avg # of iterations =  1.0

     negative rho (up, down):  3.316E-04 1.564E-04

     total cpu time spent up to now is      257.8 secs

     total energy              =    -958.18412441 Ry
     estimated scf accuracy    <       0.46922145 Ry

     total magnetization       =     2.61 Bohr mag/cell
     absolute magnetization    =     3.04 Bohr mag/cell

     iteration #  9     ecut=    60.00 Ry     beta= 0.70
     Davidson diagonalization with overlap
     ethr =  7.82E-04,  avg # of iterations =  2.3

     negative rho (up, down):  3.159E-04 1.307E-04

     total cpu time spent up to now is      280.3 secs

     total energy              =    -958.23210163 Ry
     estimated scf accuracy    <       0.26419108 Ry

     total magnetization       =     3.73 Bohr mag/cell
     absolute magnetization    =     4.29 Bohr mag/cell

     iteration # 10     ecut=    60.00 Ry     beta= 0.70
     Davidson diagonalization with overlap
     ethr =  4.40E-04,  avg # of iterations =  1.3

     negative rho (up, down):  2.383E-04 1.227E-04

     total cpu time spent up to now is      301.2 secs

     total energy              =    -958.22744952 Ry
     estimated scf accuracy    <       0.12462063 Ry

     total magnetization       =     3.81 Bohr mag/cell
     absolute magnetization    =     4.40 Bohr mag/cell

     iteration # 11     ecut=    60.00 Ry     beta= 0.70
     Davidson diagonalization with overlap
     ethr =  2.08E-04,  avg # of iterations =  3.3

     negative rho (up, down):  2.463E-04 1.234E-04

     total cpu time spent up to now is      324.1 secs

     total energy              =    -958.23587237 Ry
     estimated scf accuracy    <       0.23498772 Ry

     total magnetization       =     3.26 Bohr mag/cell
     absolute magnetization    =     3.74 Bohr mag/cell

     iteration # 12     ecut=    60.00 Ry     beta= 0.70
     Davidson diagonalization with overlap
     ethr =  2.08E-04,  avg # of iterations =  1.0

     negative rho (up, down):  2.704E-04 1.152E-04

     total cpu time spent up to now is      345.5 secs

     total energy              =    -958.25027360 Ry
     estimated scf accuracy    <       0.22056565 Ry

     total magnetization       =     3.29 Bohr mag/cell
     absolute magnetization    =     3.76 Bohr mag/cell

     iteration # 13     ecut=    60.00 Ry     beta= 0.70
     Davidson diagonalization with overlap
     ethr =  2.08E-04,  avg # of iterations =  1.2

     negative rho (up, down):  1.986E-04 1.138E-04

     total cpu time spent up to now is      366.1 secs

     total energy              =    -958.29002769 Ry
     estimated scf accuracy    <       0.31424086 Ry

     total magnetization       =     3.68 Bohr mag/cell
     absolute magnetization    =     4.22 Bohr mag/cell

     iteration # 14     ecut=    60.00 Ry     beta= 0.70
     Davidson diagonalization with overlap
     ethr =  2.08E-04,  avg # of iterations =  2.4

     negative rho (up, down):  3.326E-04 2.184E-04

     total cpu time spent up to now is      385.1 secs

     total energy              =    -958.33500429 Ry
     estimated scf accuracy    <       0.65882471 Ry

     total magnetization       =     3.56 Bohr mag/cell
     absolute magnetization    =     4.08 Bohr mag/cell

     iteration # 15     ecut=    60.00 Ry     beta= 0.70
     Davidson diagonalization with overlap
     ethr =  2.08E-04,  avg # of iterations =  4.3

     negative rho (up, down):  5.085E-04 2.541E-04

     total cpu time spent up to now is      412.3 secs

     total energy              =    -958.30303007 Ry
     estimated scf accuracy    <       1.45080408 Ry

     total magnetization       =     4.24 Bohr mag/cell
     absolute magnetization    =     5.40 Bohr mag/cell

     iteration # 16     ecut=    60.00 Ry     beta= 0.70
     Davidson diagonalization with overlap
     ethr =  2.08E-04,  avg # of iterations =  2.2

     negative rho (up, down):  5.628E-04 2.321E-04

     total cpu time spent up to now is      438.0 secs

     total energy              =    -958.28100468 Ry
     estimated scf accuracy    <       0.77746018 Ry

     total magnetization       =     4.31 Bohr mag/cell
     absolute magnetization    =     5.71 Bohr mag/cell

     iteration # 17     ecut=    60.00 Ry     beta= 0.70
     Davidson diagonalization with overlap
     ethr =  2.08E-04,  avg # of iterations =  2.2

     negative rho (up, down):  7.044E-04 2.165E-04

     total cpu time spent up to now is      463.5 secs

     total energy              =    -958.24902314 Ry
     estimated scf accuracy    <       0.39061112 Ry

     total magnetization       =     4.30 Bohr mag/cell
     absolute magnetization    =     5.68 Bohr mag/cell

     iteration # 18     ecut=    60.00 Ry     beta= 0.70
     Davidson diagonalization with overlap
     ethr =  2.08E-04,  avg # of iterations =  2.8

     negative rho (up, down):  7.343E-04 2.160E-04

     total cpu time spent up to now is      487.8 secs

     total energy              =    -958.26539928 Ry
     estimated scf accuracy    <       0.06084356 Ry

     total magnetization       =     4.10 Bohr mag/cell
     absolute magnetization    =     5.39 Bohr mag/cell

     iteration # 19     ecut=    60.00 Ry     beta= 0.70
     Davidson diagonalization with overlap
     ethr =  1.01E-04,  avg # of iterations =  2.3

     negative rho (up, down):  7.077E-04 1.360E-04

     total cpu time spent up to now is      512.1 secs

     total energy              =    -958.26726701 Ry
     estimated scf accuracy    <       0.01416992 Ry

     total magnetization       =     4.23 Bohr mag/cell
     absolute magnetization    =     5.64 Bohr mag/cell

     iteration # 20     ecut=    60.00 Ry     beta= 0.70
     Davidson diagonalization with overlap
     ethr =  2.36E-05,  avg # of iterations =  2.9

     negative rho (up, down):  7.536E-04 1.371E-04

     total cpu time spent up to now is      539.7 secs

     total energy              =    -958.26992621 Ry
     estimated scf accuracy    <       0.01180497 Ry

     total magnetization       =     4.15 Bohr mag/cell
     absolute magnetization    =     5.49 Bohr mag/cell

     iteration # 21     ecut=    60.00 Ry     beta= 0.70
     Davidson diagonalization with overlap
     ethr =  1.97E-05,  avg # of iterations =  2.0

     negative rho (up, down):  7.890E-04 1.185E-04

     total cpu time spent up to now is      564.1 secs

     total energy              =    -958.27036493 Ry
     estimated scf accuracy    <       0.00330509 Ry

     total magnetization       =     4.19 Bohr mag/cell
     absolute magnetization    =     5.62 Bohr mag/cell

     iteration # 22     ecut=    60.00 Ry     beta= 0.70
     Davidson diagonalization with overlap
     c_bands:  1 eigenvalues not converged
     ethr =  5.51E-06,  avg # of iterations =  5.0

     negative rho (up, down):  7.908E-04 1.180E-04

     total cpu time spent up to now is      591.1 secs

     total energy              =    -958.27114056 Ry
     estimated scf accuracy    <       0.00005370 Ry

     total magnetization       =     4.20 Bohr mag/cell
     absolute magnetization    =     5.69 Bohr mag/cell

     iteration # 23     ecut=    60.00 Ry     beta= 0.70
     Davidson diagonalization with overlap
     c_bands:  1 eigenvalues not converged
     ethr =  8.95E-08,  avg # of iterations =  5.7

     negative rho (up, down):  7.906E-04 1.184E-04

     total cpu time spent up to now is      628.2 secs

     total energy              =    -958.27120274 Ry
     estimated scf accuracy    <       0.00002793 Ry

     total magnetization       =     4.19 Bohr mag/cell
     absolute magnetization    =     5.67 Bohr mag/cell

     iteration # 24     ecut=    60.00 Ry     beta= 0.70
     Davidson diagonalization with overlap
     ethr =  4.66E-08,  avg # of iterations =  4.4

     negative rho (up, down):  7.854E-04 1.221E-04

     total cpu time spent up to now is      658.9 secs

     total energy              =    -958.27122056 Ry
     estimated scf accuracy    <       0.00001920 Ry

     total magnetization       =     4.18 Bohr mag/cell
     absolute magnetization    =     5.66 Bohr mag/cell

     iteration # 25     ecut=    60.00 Ry     beta= 0.70
     Davidson diagonalization with overlap
     ethr =  3.20E-08,  avg # of iterations =  2.9

     negative rho (up, down):  7.824E-04 1.261E-04

     total cpu time spent up to now is      685.9 secs

     total energy              =    -958.27122649 Ry
     estimated scf accuracy    <       0.00000636 Ry

     total magnetization       =     4.18 Bohr mag/cell
     absolute magnetization    =     5.65 Bohr mag/cell

     iteration # 26     ecut=    60.00 Ry     beta= 0.70
     Davidson diagonalization with overlap
     ethr =  1.06E-08,  avg # of iterations =  3.1

     negative rho (up, down):  7.807E-04 1.288E-04

     total cpu time spent up to now is      712.9 secs

     total energy              =    -958.27122688 Ry
     estimated scf accuracy    <       0.00001109 Ry

     total magnetization       =     4.18 Bohr mag/cell
     absolute magnetization    =     5.64 Bohr mag/cell

     iteration # 27     ecut=    60.00 Ry     beta= 0.70
     Davidson diagonalization with overlap
     ethr =  1.06E-08,  avg # of iterations =  3.1

     negative rho (up, down):  7.784E-04 1.307E-04

     total cpu time spent up to now is      739.4 secs

     total energy              =    -958.27123000 Ry
     estimated scf accuracy    <       0.00000144 Ry

     total magnetization       =     4.17 Bohr mag/cell
     absolute magnetization    =     5.63 Bohr mag/cell

     iteration # 28     ecut=    60.00 Ry     beta= 0.70
     Davidson diagonalization with overlap
     ethr =  2.40E-09,  avg # of iterations =  4.6

     negative rho (up, down):  7.764E-04 1.325E-04

     total cpu time spent up to now is      766.3 secs

     total energy              =    -958.27123041 Ry
     estimated scf accuracy    <       0.00000009 Ry

     total magnetization       =     4.17 Bohr mag/cell
     absolute magnetization    =     5.62 Bohr mag/cell

     iteration # 29     ecut=    60.00 Ry     beta= 0.70
     Davidson diagonalization with overlap
     ethr =  1.42E-10,  avg # of iterations =  6.0

     negative rho (up, down):  7.764E-04 1.325E-04

     total cpu time spent up to now is      801.7 secs

     total energy              =    -958.27123083 Ry
     estimated scf accuracy    <       0.00000002 Ry

     total magnetization       =     4.17 Bohr mag/cell
     absolute magnetization    =     5.62 Bohr mag/cell

     iteration # 30     ecut=    60.00 Ry     beta= 0.70
     Davidson diagonalization with overlap
     ethr =  3.80E-11,  avg # of iterations =  4.0

     negative rho (up, down):  7.757E-04 1.332E-04

     total cpu time spent up to now is      827.4 secs

     total energy              =    -958.27123081 Ry
     estimated scf accuracy    <       0.00000002 Ry

     total magnetization       =     4.17 Bohr mag/cell
     absolute magnetization    =     5.62 Bohr mag/cell

     iteration # 31     ecut=    60.00 Ry     beta= 0.70
     Davidson diagonalization with overlap
     ethr =  2.83E-11,  avg # of iterations =  5.0

     negative rho (up, down):  7.758E-04 1.332E-04

     Magnetic moment per site  (integrated on atomic sphere of radius R)
     atom   1 (R=0.179)  charge= 14.6116  magn=  1.0920
     atom   2 (R=0.179)  charge= 15.7117  magn=  1.0870
     atom   3 (R=0.179)  charge= 13.3456  magn=  2.6216
     atom   4 (R=0.179)  charge=  9.9278  magn= -0.3949

     total cpu time spent up to now is      858.0 secs

     End of self-consistent calculation

     Number of k-points >= 100: set verbosity='high' to print the bands.

     the Fermi energy is    17.5258 ev

!    total energy              =    -958.27123085 Ry
     estimated scf accuracy    <          4.9E-09 Ry
     smearing contrib. (-TS)   =       0.00481073 Ry
     internal energy E=F+TS    =    -958.27604158 Ry

     The total energy is F=E-TS. E is the sum of the following terms:
     one-electron contribution =    -404.33344904 Ry
     hartree contribution      =     237.13206918 Ry
     xc contribution           =    -112.19385019 Ry
     ewald contribution        =    -602.73155341 Ry
     one-center paw contrib.   =     -76.14925814 Ry

     total magnetization       =     4.17 Bohr mag/cell
     absolute magnetization    =     5.62 Bohr mag/cell

     convergence has been achieved in  31 iterations

     negative rho (up, down):  7.758E-04 1.332E-04

     Forces acting on atoms (cartesian axes, Ry/au):

     atom    1 type  2   force =     0.00000000   -0.00000000    0.00000000
     atom    2 type  1   force =     0.00000000    0.00000000    0.00000000
     atom    3 type  3   force =     0.00000000    0.00000000    0.00000000
     atom    4 type  4   force =     0.00000000    0.00000000    0.00000000

     Total force =     0.000000     Total SCF correction =     0.000000


     Computing stress (Cartesian axis) and pressure


     negative rho (up, down):  7.758E-04 1.332E-04
          total   stress  (Ry/bohr**3)                   (kbar)     P=        6.55
   0.00004449   0.00000000   0.00000000            6.55        0.00        0.00
   0.00000000   0.00004449   0.00000000            0.00        6.55        0.00
   0.00000000   0.00000000   0.00004449            0.00        0.00        6.55


     Writing all to output data dir /home/washingmachine/Galaxy/CoFeMnTi-1/tmp/CoFeMnTi_scf.save/

     init_run     :     13.51s CPU     14.15s WALL (       1 calls)
     electrons    :    815.27s CPU    843.56s WALL (       1 calls)
     forces       :      1.95s CPU      2.21s WALL (       1 calls)
     stress       :      8.59s CPU      9.36s WALL (       1 calls)

     Called by init_run:
     wfcinit      :     11.57s CPU     11.81s WALL (       1 calls)
     potinit      :      0.51s CPU      0.58s WALL (       1 calls)
     hinit0       :      1.04s CPU      1.06s WALL (       1 calls)

     Called by electrons:
     c_bands      :    664.17s CPU    672.02s WALL (      31 calls)
     sum_band     :    126.45s CPU    138.38s WALL (      31 calls)
     v_of_rho     :      5.46s CPU      5.92s WALL (      32 calls)
     newd         :      9.67s CPU     17.93s WALL (      32 calls)
     PAW_pot      :      9.24s CPU      9.35s WALL (      32 calls)
     mix_rho      :      0.66s CPU      0.67s WALL (      31 calls)

     Called by c_bands:
     init_us_2    :     11.43s CPU     11.62s WALL (    9360 calls)
     init_us_2:cp :     11.41s CPU     11.60s WALL (    9360 calls)
     cegterg      :    624.85s CPU    632.24s WALL (    4464 calls)

     Called by *egterg:
     cdiaghg      :     23.15s CPU     23.42s WALL (   19403 calls)
     h_psi        :    506.46s CPU    512.57s WALL (   19547 calls)
     s_psi        :     19.40s CPU     19.64s WALL (   19547 calls)
     g_psi        :      3.72s CPU      3.76s WALL (   14939 calls)

     Called by h_psi:
     h_psi:calbec :     21.74s CPU     22.01s WALL (   19547 calls)
     vloc_psi     :    462.66s CPU    468.19s WALL (   19547 calls)
     add_vuspsi   :     20.04s CPU     20.29s WALL (   19547 calls)

     General routines
     calbec       :     30.59s CPU     30.99s WALL (   24731 calls)
     fft          :      2.54s CPU      2.57s WALL (     838 calls)
     ffts         :      0.11s CPU      0.11s WALL (     126 calls)
     fftw         :    488.56s CPU    494.55s WALL (  987156 calls)
     interpolate  :      0.29s CPU      0.29s WALL (      64 calls)


     PWSCF        :  13m59.76s CPU  14m29.84s WALL


   This run was terminated on:   1: 6:11   1Sep2025            

=------------------------------------------------------------------------------=
   JOB DONE.
=------------------------------------------------------------------------------=
